/*--------------------------------*- C++ -*----------------------------------*\
  =========                 |
  \\      /  F ield         | OpenFOAM: The Open Source CFD Toolbox
   \\    /   O peration     | Website:  https://openfoam.org
    \\  /    A nd           | Version:  6
     \\/     M anipulation  |
\*---------------------------------------------------------------------------*/
FoamFile
{
    version     2.0;
    format      ascii;
    class       volScalarField;
    location    "136";
    object      pMean;
}
// * * * * * * * * * * * * * * * * * * * * * * * * * * * * * * * * * * * * * //

dimensions      [0 2 -2 0 0 0 0];

internalField   nonuniform List<scalar> 
9200
(
-0.40146155
-0.38923073
-0.37829631
-0.3686428
-0.35919285
-0.34994568
-0.34098623
-0.33227807
-0.32374861
-0.31532307
-0.30692773
-0.29849483
-0.28996963
-0.28131748
-0.27253375
-0.26366077
-0.25478194
-0.24599048
-0.23828538
-0.23584503
-0.42005419
-0.4053749
-0.39250603
-0.38132143
-0.3704734
-0.35993109
-0.34976979
-0.33992329
-0.33028889
-0.32076823
-0.31127083
-0.30171969
-0.29205868
-0.28225801
-0.27231895
-0.26227689
-0.25217221
-0.24201399
-0.23247339
-0.22568
-0.43895304
-0.42182011
-0.40707413
-0.394433
-0.38224047
-0.37041792
-0.35902036
-0.34794591
-0.3370619
-0.32625241
-0.31542124
-0.30449697
-0.29343902
-0.28223987
-0.27092373
-0.25954131
-0.24814194
-0.23674265
-0.22574106
-0.21625012
-0.4576942
-0.43814179
-0.42159135
-0.40755525
-0.394033
-0.38088296
-0.36813402
-0.3556506
-0.3432805
-0.33090777
-0.31845275
-0.30587381
-0.29316927
-0.28037381
-0.26755067
-0.2547807
-0.24213834
-0.22966665
-0.21763438
-0.2067901
-0.47561684
-0.45376258
-0.43552986
-0.42017409
-0.40532542
-0.3907704
-0.37651427
-0.36240124
-0.34828244
-0.33407045
-0.31973214
-0.3052831
-0.29078177
-0.27631824
-0.26200004
-0.24793779
-0.23422504
-0.22091975
-0.20821109
-0.19661624
-0.49186742
-0.46793382
-0.44819827
-0.43160939
-0.41542169
-0.39935271
-0.38339953
-0.36741444
-0.35128764
-0.33499684
-0.31858724
-0.30215418
-0.28582722
-0.26975132
-0.25406861
-0.23890402
-0.22435079
-0.21046003
-0.19735688
-0.18538625
-0.50541565
-0.47974277
-0.4587442
-0.44101953
-0.42346859
-0.40575884
-0.38790999
-0.36982509
-0.35147829
-0.33295065
-0.3143916
-0.29598716
-0.27793439
-0.26041817
-0.24359367
-0.22757664
-0.2124371
-0.19819836
-0.18492446
-0.17282118
-0.51507812
-0.48813814
-0.46618911
-0.44745098
-0.4285227
-0.4090587
-0.38914633
-0.36879248
-0.34810274
-0.32729418
-0.30663475
-0.28639788
-0.2668313
-0.24813534
-0.23045206
-0.21386474
-0.19840178
-0.18404558
-0.17080047
-0.1587542
-0.51949835
-0.49182592
-0.46922589
-0.44954804
-0.42919331
-0.40786772
-0.38578716
-0.3631184
-0.3401352
-0.31720258
-0.29469715
-0.27295473
-0.25224184
-0.232743
-0.21456176
-0.19773157
-0.1822298
-0.16799489
-0.15497579
-0.14315867
-0.51732156
-0.48937777
-0.46629269
-0.44563382
-0.42375459
-0.40049719
-0.37626985
-0.35144131
-0.32646263
-0.3018257
-0.27797563
-0.25526403
-0.23393374
-0.21412178
-0.19587449
-0.17916849
-0.1639319
-0.15006572
-0.13747091
-0.12604474
-0.2809784
-0.28526104
-0.28715931
-0.28737118
-0.2865858
-0.28496739
-0.28261467
-0.2796248
-0.2760737
-0.27201974
-0.26751095
-0.26258864
-0.25728958
-0.25164743
-0.24569408
-0.23946211
-0.23298627
-0.2262909
-0.2193781
-0.21234045
-0.28396171
-0.28779946
-0.28937601
-0.28936339
-0.28839247
-0.2866188
-0.28413895
-0.28104558
-0.27741051
-0.2732889
-0.26872608
-0.26376098
-0.25842824
-0.25275932
-0.24678328
-0.24053142
-0.23404586
-0.22734923
-0.22033371
-0.21297233
-0.28976934
-0.29274146
-0.29369354
-0.2932421
-0.29190785
-0.28983065
-0.2871027
-0.28380802
-0.28001047
-0.2757589
-0.27109316
-0.26604745
-0.26065213
-0.25493443
-0.24891815
-0.24263129
-0.23612698
-0.22942699
-0.22222824
-0.2142587
-0.29812156
-0.29986115
-0.2999129
-0.29881663
-0.29694203
-0.29440898
-0.29130448
-0.28770084
-0.28365096
-0.2791948
-0.27436447
-0.26918729
-0.26368742
-0.25788587
-0.2517992
-0.24544961
-0.23890128
-0.23218123
-0.22474133
-0.21592676
-0.30866663
-0.30887521
-0.30778651
-0.30585265
-0.30326482
-0.30012197
-0.29650641
-0.29247719
-0.28807432
-0.2833273
-0.27825883
-0.27288702
-0.26722774
-0.26129445
-0.25509519
-0.24864333
-0.24200991
-0.2352357
-0.22752131
-0.2176917
-0.32104042
-0.31949003
-0.31706001
-0.3141137
-0.31064898
-0.30674572
-0.30248381
-0.29790932
-0.29304872
-0.2879185
-0.28252947
-0.27688943
-0.27100465
-0.26487956
-0.25851277
-0.25190622
-0.24513003
-0.23824445
-0.23023207
-0.21928992
-0.33491961
-0.33144339
-0.32750965
-0.32339913
-0.31891058
-0.31410872
-0.30907498
-0.30384212
-0.29842049
-0.29281294
-0.28701766
-0.28103024
-0.27484566
-0.26845836
-0.26185779
-0.25503451
-0.24805127
-0.24099079
-0.23268273
-0.22064267
-0.35005257
-0.34452961
-0.33896651
-0.33357058
-0.32794044
-0.32212898
-0.31621961
-0.31023138
-0.30415873
-0.29798901
-0.29170511
-0.28528764
-0.27871747
-0.27197682
-0.26504576
-0.2579067
-0.25062052
-0.24331598
-0.23478744
-0.22187685
-0.36625797
-0.3585896
-0.35129473
-0.344517
-0.33765019
-0.33073457
-0.32385764
-0.31702453
-0.31021125
-0.30338687
-0.29651585
-0.28956019
-0.28248189
-0.27524347
-0.26780351
-0.26011859
-0.25221608
-0.2442081
-0.23489121
-0.22083538
-0.38341473
-0.37349093
-0.36435508
-0.35609203
-0.34787962
-0.33974539
-0.33178109
-0.32397615
-0.31628628
-0.30866134
-0.30104795
-0.29339214
-0.28564258
-0.27775077
-0.26966584
-0.26133028
-0.25269455
-0.24356501
-0.23234997
-0.21610326
-0.20437957
-0.19450961
-0.18468703
-0.174994
-0.16537088
-0.15585762
-0.14651168
-0.13736995
-0.12846088
-0.11981188
-0.11144742
-0.10338768
-0.095649101
-0.088244888
-0.081185143
-0.074476943
-0.068124519
-0.062129445
-0.056490807
-0.051205373
-0.046267785
-0.041670748
-0.037405238
-0.033460709
-0.029825309
-0.026486101
-0.023429271
-0.02064035
-0.018104411
-0.015806268
-0.013730659
-0.011862412
-0.010186602
-0.0086886916
-0.0073546558
-0.006171098
-0.0051253615
-0.0042056129
-0.0034010186
-0.0027016301
-0.0020993114
-0.0015854312
-0.0011591654
-0.00080307254
-0.00056038183
-0.00030574812
-0.000435681
0.00014782178
-0.0018629083
0.0028961327
-0.20575179
-0.19543839
-0.18548225
-0.17579061
-0.16613181
-0.15656869
-0.14718032
-0.13799957
-0.12905174
-0.12036497
-0.11196419
-0.10386944
-0.096097128
-0.08866052
-0.081569775
-0.074832002
-0.068451464
-0.062429758
-0.056765983
-0.051456909
-0.046497166
-0.04187944
-0.037594675
-0.033632286
-0.029980375
-0.026625951
-0.023555144
-0.020753421
-0.018205793
-0.015897007
-0.013811734
-0.011934734
-0.010251018
-0.00874598
-0.0074055337
-0.0062162201
-0.0051653231
-0.0042409524
-0.0034322195
-0.0027291235
-0.0021234767
-0.0016065989
-0.0011776009
-0.00081902732
-0.00057384238
-0.00031725256
-0.00044319681
0.00013884991
-0.0018515511
0.0028666282
-0.20853158
-0.19728684
-0.18707059
-0.17742682
-0.16771423
-0.15805531
-0.14858678
-0.13933153
-0.13030694
-0.12154359
-0.11306813
-0.10490051
-0.097057208
-0.089551867
-0.082394927
-0.075593691
-0.069152582
-0.063073331
-0.057355125
-0.051994787
-0.046986961
-0.042324316
-0.03799775
-0.03399661
-0.030308907
-0.026921539
-0.023820515
-0.02099117
-0.018418372
-0.016086722
-0.01398074
-0.012085037
-0.010384474
-0.008864298
-0.0075102794
-0.0063088205
-0.0052470723
-0.004313017
-0.0034956444
-0.002784837
-0.0021722944
-0.0016492275
-0.0012146145
-0.00085095084
-0.0006007017
-0.00034008506
-0.00045810303
0.00012124675
-0.0018290163
0.0028081813
-0.21243051
-0.19971847
-0.18913245
-0.17966679
-0.16993194
-0.16015486
-0.15059263
-0.14125095
-0.13213015
-0.1232663
-0.11469051
-0.10642298
-0.09848053
-0.090877743
-0.083625842
-0.076732671
-0.0702031
-0.064039229
-0.058240527
-0.05280401
-0.047724444
-0.042994555
-0.03860524
-0.034545794
-0.030804136
-0.027367038
-0.02422035
-0.021349227
-0.018738341
-0.016372084
-0.014234758
-0.012310753
-0.010584706
-0.0090416444
-0.0076671219
-0.0064473309
-0.0053692194
-0.0044205753
-0.0035902029
-0.0028678056
-0.0022449116
-0.0017125642
-0.0012695422
-0.00089826081
-0.00064044725
-0.00037380295
-0.00048003721
9.5378457e-05
-0.0017955825
0.0027219904
-0.21708165
-0.20235705
-0.19130578
-0.18222261
-0.17255663
-0.16266752
-0.15302317
-0.14361089
-0.13439817
-0.12542841
-0.11674213
-0.10836119
-0.10030303
-0.09258389
-0.08521656
-0.078210032
-0.07157008
-0.065299561
-0.059398549
-0.053864519
-0.048692567
-0.043875634
-0.039404739
-0.03526921
-0.031456926
-0.02795456
-0.024747812
-0.021821646
-0.019160508
-0.016748542
-0.014569786
-0.012608351
-0.010848592
-0.0092752537
-0.0078736083
-0.0066295735
-0.0055298308
-0.004561911
-0.0037143721
-0.0029766799
-0.0023401338
-0.001795554
-0.0013414533
-0.00096013963
-0.00069236388
-0.00041778044
-0.00050851716
6.1806896e-05
-0.0017518022
0.0026099392
-0.22201942
-0.20483865
-0.19324979
-0.18478575
-0.17534421
-0.16538665
-0.1556896
-0.14624555
-0.13697137
-0.1279118
-0.11912186
-0.11062871
-0.10245126
-0.094607961
-0.087114132
-0.079980798
-0.073215312
-0.066821837
-0.060801526
-0.055152713
-0.049871146
-0.044950247
-0.040381358
-0.036154003
-0.032256139
-0.02867442
-0.025394448
-0.02240102
-0.019678362
-0.017210358
-0.014980751
-0.012973339
-0.011172148
-0.009561588
-0.0081265951
-0.0068527551
-0.0057264251
-0.0047348211
-0.0038661986
-0.00310973
-0.0024564318
-0.0018968481
-0.0014291609
-0.0010355479
-0.00075554696
-0.00047123099
-0.00054294798
2.1226918e-05
-0.0016984169
0.0024744753
-0.22677306
-0.20693378
-0.1947154
-0.1870343
-0.17804535
-0.1681395
-0.15843565
-0.14900452
-0.13971808
-0.1306055
-0.12173438
-0.11314263
-0.10485334
-0.096887779
-0.089264646
-0.081998086
-0.075097941
-0.068570388
-0.062418254
-0.056641235
-0.051236154
-0.046197251
-0.041516467
-0.037183732
-0.033187248
-0.02951377
-0.026148885
-0.023077278
-0.020282982
-0.017749627
-0.015460653
-0.01339952
-0.011549891
-0.0098958007
-0.0084218032
-0.0071131026
-0.0059556806
-0.0049363868
-0.0040431226
-0.003264716
-0.0025918507
-0.0020147458
-0.0015311905
-0.0011232159
-0.00082891086
-0.0005332362
-0.00058264948
-2.5612885e-05
-0.0016362936
0.0023184523
-0.23103923
-0.2090053
-0.19591658
-0.18877919
-0.18043532
-0.17081996
-0.16119734
-0.15181138
-0.14255571
-0.13343295
-0.12450994
-0.11583791
-0.10744858
-0.099367442
-0.091617046
-0.084215489
-0.077175979
-0.070507399
-0.064214814
-0.058299766
-0.052760566
-0.047592616
-0.042788738
-0.0383395
-0.034233529
-0.030457825
-0.026998065
-0.023838893
-0.020964202
-0.018357389
-0.016001599
-0.013879947
-0.011975714
-0.010272531
-0.008754533
-0.0074065044
-0.0062140081
-0.0051634827
-0.0042424307
-0.0034392905
-0.0027443671
-0.0021475111
-0.0016460588
-0.0012218882
-0.00091140018
-0.00060292425
-0.00062700077
-7.8038574e-05
-0.0015664293
0.0021450732
-0.23248319
-0.21121484
-0.19747574
-0.18993722
-0.18207985
-0.17304554
-0.16369745
-0.15443234
-0.14526936
-0.13620503
-0.12728992
-0.1185837
-0.11012998
-0.1019609
-0.094103644
-0.086580972
-0.079410434
-0.072604573
-0.06617152
-0.060115418
-0.054436739
-0.049132643
-0.044197345
-0.039622484
-0.035397472
-0.031509851
-0.02794562
-0.02468957
-0.021725583
-0.019036923
-0.016606504
-0.014417129
-0.012451709
-0.010693465
-0.0091260954
-0.0077339318
-0.0065020814
-0.0054165284
-0.00446433
-0.0036334861
-0.0029138733
-0.0022949249
-0.0017734606
-0.0013311888
-0.0010026043
-0.00067980721
-0.00067570298
-0.00013521438
-0.0014903195
0.0019585384
-0.22298273
-0.21065889
-0.1988331
-0.18994948
-0.18207132
-0.17383938
-0.16511537
-0.15622751
-0.14735438
-0.13852572
-0.12977426
-0.12116077
-0.1127424
-0.10456271
-0.096657223
-0.089056288
-0.081784507
-0.074860574
-0.068297836
-0.062104842
-0.05628576
-0.050840787
-0.045766589
-0.04105674
-0.036702136
-0.03269141
-0.029011319
-0.025647124
-0.022582946
-0.019802086
-0.017287341
-0.015021272
-0.012986453
-0.011165698
-0.0095422517
-0.0080999596
-0.0068234284
-0.005698136
-0.0047106382
-0.0038484367
-0.0031009217
-0.0024570468
-0.0019130544
-0.0014504311
-0.0011016337
-0.00076266194
-0.00072794173
-0.0001948086
-0.0014102561
0.0017646383
-0.20146251
-0.2046413
-0.19837549
-0.18878185
-0.18053614
-0.17274348
-0.16448939
-0.15592408
-0.14730899
-0.13871015
-0.1301532
-0.12169503
-0.11339703
-0.10530763
-0.097466097
-0.089906218
-0.082656044
-0.075737491
-0.069166806
-0.062955135
-0.057108947
-0.051630461
-0.046518092
-0.04176691
-0.037369077
-0.033314277
-0.029590131
-0.026182594
-0.023076323
-0.020255033
-0.017701815
-0.015399425
-0.013330556
-0.011478067
-0.009825191
-0.0083557189
-0.0070541639
-0.0059058817
-0.0048972792
-0.0040156952
-0.0032503053
-0.0025899141
-0.0020302498
-0.0015532168
-0.0011883379
-0.00083811576
-0.00077326017
-0.00025369087
-0.0013255379
0.0015720558
-0.19031878
-0.19459874
-0.19020372
-0.18093596
-0.17310796
-0.16614721
-0.15876613
-0.15098209
-0.14308199
-0.13514361
-0.12718433
-0.11925752
-0.11142743
-0.1037468
-0.096259165
-0.089002838
-0.082010602
-0.075309055
-0.068918926
-0.062855598
-0.057129502
-0.051746521
-0.046708427
-0.042013341
-0.037656177
-0.033629084
-0.029921874
-0.026522436
-0.023417119
-0.020591107
-0.018028754
-0.015713894
-0.013630127
-0.011761066
-0.010090565
-0.0086029126
-0.0072830162
-0.0061165324
-0.0050900791
-0.0041911526
-0.0034089445
-0.0027324076
-0.002156713
-0.0016648729
-0.0012821646
-0.00092112512
-0.00082033078
-0.00032247507
-0.0012253312
0.0013625045
-0.18085042
-0.18273969
-0.17961899
-0.17214636
-0.16525772
-0.15906555
-0.15251607
-0.14552256
-0.13834082
-0.13106723
-0.12372178
-0.1163523
-0.10902208
-0.10178605
-0.094690359
-0.087776234
-0.081079934
-0.074631843
-0.068456551
-0.062573271
-0.056996168
-0.051734699
-0.046794011
-0.042175366
-0.037876579
-0.033892446
-0.030215174
-0.026834797
-0.023739574
-0.020916367
-0.018350992
-0.016028549
-0.013933717
-0.012051019
-0.010365069
-0.0088607793
-0.0075235549
-0.0063394459
-0.0052953568
-0.0043790062
-0.0035796424
-0.0028864223
-0.0022939171
-0.0017864195
-0.0013844572
-0.0010118699
-0.00087133901
-0.00039810805
-0.0011134196
0.0011312547
-0.17044016
-0.16998683
-0.16740873
-0.16204131
-0.15644668
-0.15107027
-0.1453743
-0.13924783
-0.13286001
-0.1263117
-0.11963796
-0.11288493
-0.10611284
-0.099377533
-0.092727359
-0.086206035
-0.079852806
-0.073701536
-0.067780533
-0.062112806
-0.056716318
-0.051604242
-0.046785295
-0.042264123
-0.038041702
-0.03411575
-0.030481149
-0.027130353
-0.024053792
-0.021240257
-0.018677259
-0.016351374
-0.014248552
-0.012354401
-0.010654442
-0.0091343438
-0.0077801232
-0.0065783194
-0.0055162022
-0.0045817765
-0.0037643953
-0.0030534544
-0.0024429367
-0.0019184349
-0.0014956322
-0.0011098473
-0.00092705948
-0.00047711929
-0.00099761329
0.000888793
-0.15916998
-0.15710034
-0.15466286
-0.15103056
-0.14677684
-0.14227279
-0.13743333
-0.13220155
-0.12665692
-0.1208825
-0.1149281
-0.10884228
-0.1026812
-0.09649969
-0.090347317
-0.084269466
-0.078307575
-0.072498365
-0.066873451
-0.061459399
-0.056277856
-0.051345717
-0.046675371
-0.042275014
-0.038149004
-0.034298237
-0.03072054
-0.027411068
-0.024362701
-0.021566426
-0.019011708
-0.016686836
-0.014579248
-0.012675834
-0.010963203
-0.0094279281
-0.0080567756
-0.0068368856
-0.0057559887
-0.0048024512
-0.0039657933
-0.0032356826
-0.0026055608
-0.0020622679
-0.0016167743
-0.0012154804
-0.0009884975
-0.00055822178
-0.00088371916
0.00064331343
-0.14677737
-0.14412723
-0.14191837
-0.13958486
-0.13654039
-0.13293122
-0.12893378
-0.12457313
-0.11987176
-0.11488578
-0.10967141
-0.10427903
-0.098760667
-0.093168707
-0.087552574
-0.081958178
-0.076428002
-0.071000598
-0.065710083
-0.060585968
-0.055653141
-0.05093192
-0.046438202
-0.042183683
-0.038176138
-0.034419745
-0.030915433
-0.027661251
-0.024652741
-0.021883311
-0.019344605
-0.017026848
-0.014919183
-0.013009976
-0.011287105
-0.0097382193
-0.0083509756
-0.0071132445
-0.0060133271
-0.00504004
-0.0041831491
-0.0034326332
-0.0027814733
-0.0022176588
-0.0017477621
-0.0013284395
-0.0010561195
-0.00064031034
-0.00077745739
0.00040333188
-0.13359466
-0.13121688
-0.12944941
-0.12805979
-0.1260146
-0.1232657
-0.12007821
-0.11653925
-0.11264863
-0.10843719
-0.10395905
-0.099265325
-0.094403031
-0.089420068
-0.084364396
-0.07928145
-0.074213647
-0.069200191
-0.064276674
-0.059474706
-0.054821735
-0.050340973
-0.046051434
-0.041968051
-0.038101871
-0.034460295
-0.031047376
-0.027864132
-0.02490889
-0.022177637
-0.019664368
-0.017361428
-0.015259849
-0.01334966
-0.011620183
-0.010060305
-0.0086587259
-0.0074041798
-0.0062856573
-0.0052925241
-0.0044148832
-0.0036430705
-0.0029697149
-0.0023838264
-0.0018880531
-0.0014481219
-0.001130202
-0.00072235823
-0.00068463669
0.00017790925
-0.12031815
-0.11861046
-0.11740302
-0.11670622
-0.11545242
-0.11348291
-0.11105061
-0.10826881
-0.10513451
-0.10166158
-0.097895746
-0.093885469
-0.089674052
-0.08530398
-0.080819096
-0.076263152
-0.071677639
-0.067101365
-0.062570277
-0.0581171
-0.053770996
-0.049557365
-0.045497768
-0.041609932
-0.03790785
-0.034401933
-0.031099232
-0.028003691
-0.025116441
-0.022436111
-0.019959153
-0.017680164
-0.01559221
-0.013687138
-0.01195587
-0.010388684
-0.0089754666
-0.0077059521
-0.0065699433
-0.0055574597
-0.0046590423
-0.0038654376
-0.0031690533
-0.0025597782
-0.0020369275
-0.0015738775
-0.0012109082
-0.00080369958
-0.00061043402
-2.437181e-05
-0.10746431
-0.10648153
-0.10584397
-0.10567874
-0.10504837
-0.1037553
-0.10200422
-0.099906601
-0.097462424
-0.094676344
-0.091583911
-0.088227739
-0.08464646
-0.080877884
-0.076961191
-0.072936269
-0.068842464
-0.064717344
-0.060596256
-0.056512036
-0.052494646
-0.048570872
-0.044764124
-0.041094349
-0.037578019
-0.0342282
-0.031054683
-0.028064169
-0.025260501
-0.022644921
-0.02021636
-0.017971729
-0.015906222
-0.014013616
-0.012286559
-0.010716851
-0.0092956981
-0.0080139606
-0.0068623743
-0.0058317199
-0.0049130824
-0.0040976806
-0.0033778459
-0.0027442131
-0.0021934195
-0.0017049869
-0.0012982167
-0.00088411166
-0.00055868089
-0.00019651396
-0.095300018
-0.094945359
-0.094817936
-0.095074713
-0.094938782
-0.094215487
-0.093060335
-0.091569182
-0.089743661
-0.087583552
-0.085114982
-0.082373101
-0.079390999
-0.076201267
-0.072838396
-0.069338066
-0.06573601
-0.062067429
-0.058366231
-0.054664497
-0.0509921
-0.047376377
-0.043841842
-0.040410004
-0.037099257
-0.03392486
-0.030898979
-0.028030797
-0.025326671
-0.022790337
-0.020423142
-0.018224301
-0.016191168
-0.014319511
-0.012603791
-0.011037427
-0.009613058
-0.0083227792
-0.0071583719
-0.0061114816
-0.0051738433
-0.0043372171
-0.003594009
-0.0029354924
-0.0023562946
-0.0018406386
-0.0013918701
-0.00096375977
-0.00053133912
-0.00033405242
-0.083954162
-0.084089132
-0.084377609
-0.084966699
-0.085221236
-0.084966033
-0.084317536
-0.083352561
-0.082071728
-0.080471589
-0.07857026
-0.076395118
-0.073973161
-0.071331507
-0.068499427
-0.065508085
-0.062389301
-0.059174905
-0.055896393
-0.052584289
-0.049267587
-0.045973375
-0.04272652
-0.0395494
-0.036461723
-0.03348041
-0.030619559
-0.027890472
-0.025301745
-0.0228594
-0.020567061
-0.018426167
-0.016436198
-0.014594923
-0.012898653
-0.011342494
-0.0099205935
-0.0086263748
-0.0074527598
-0.0063923539
-0.0054376434
-0.0045810039
-0.0038150653
-0.0031316692
-0.0025240689
-0.0019799177
-0.0014913464
-0.0010430612
-0.00052822318
-0.00043571393
-0.073480046
-0.073971533
-0.074574248
-0.075413613
-0.075969164
-0.076088368
-0.07585859
-0.075339161
-0.074528136
-0.073419299
-0.072024056
-0.070362462
-0.068455313
-0.066324155
-0.063992896
-0.061487734
-0.058836212
-0.056066462
-0.053206812
-0.050285412
-0.047329636
-0.044365599
-0.041417792
-0.038508777
-0.035658937
-0.032886286
-0.030206357
-0.027632151
-0.02517415
-0.022840387
-0.020636559
-0.018566178
-0.016630761
-0.01483003
-0.01316214
-0.011623906
-0.010211032
-0.0089183325
-0.0077399479
-0.006669525
-0.0057003941
-0.0048256215
-0.0040382049
-0.0033305239
-0.0026950306
-0.0021217792
-0.0015958348
-0.001122494
-0.00054704366
-0.00050360866
-0.063884676
-0.064621677
-0.065445852
-0.066460739
-0.067238376
-0.067647379
-0.067753331
-0.067601075
-0.067185839
-0.066498949
-0.065546209
-0.064341167
-0.062898718
-0.061234965
-0.059368519
-0.057320509
-0.055113859
-0.052772659
-0.050321724
-0.047786209
-0.04519118
-0.042561105
-0.039919431
-0.037288239
-0.03468795
-0.032137085
-0.029652075
-0.02724715
-0.02493428
-0.022723173
-0.020621327
-0.018634125
-0.016764968
-0.015015435
-0.013385471
-0.01187358
-0.010477034
-0.0091920775
-0.0080141206
-0.0069379178
-0.0059577238
-0.0050673702
-0.0042603552
-0.0035296053
-0.0028672607
-0.0022650153
-0.0017042236
-0.0012023944
-0.00058379626
-0.00054283891
-0.055149315
-0.056044429
-0.057012311
-0.058137763
-0.059068795
-0.059692839
-0.060058864
-0.060200175
-0.060109659
-0.059776683
-0.0592025
-0.058395115
-0.057364127
-0.056120581
-0.054678056
-0.053052741
-0.05126289
-0.049328315
-0.04727002
-0.045109824
-0.042869959
-0.040572656
-0.038239707
-0.035892099
-0.033549681
-0.031230887
-0.028952499
-0.026729475
-0.024574824
-0.022499548
-0.020512624
-0.018621046
-0.016829894
-0.015142456
-0.013560362
-0.012083748
-0.01071143
-0.0094410838
-0.0082694199
-0.0071923468
-0.0062051092
-0.0053023738
-0.0044782591
-0.003726279
-0.00303866
-0.0024082285
-0.0018151119
-0.0012827968
-0.00063343884
-0.00056054574
-0.04723976
-0.048225867
-0.049275509
-0.050458078
-0.051484727
-0.052259578
-0.052818873
-0.053186932
-0.053355051
-0.053311299
-0.053053417
-0.052584894
-0.051910825
-0.051037794
-0.04997481
-0.048733452
-0.04732747
-0.045772409
-0.044085313
-0.042284427
-0.040388833
-0.038418073
-0.036391777
-0.034329288
-0.032249321
-0.03016966
-0.02810689
-0.02607618
-0.024091109
-0.022163548
-0.020303588
-0.018519518
-0.016817851
-0.015203377
-0.013679266
-0.012247181
-0.010907418
-0.0096590573
-0.0085001098
-0.0074276627
-0.0064379993
-0.005526683
-0.0046885563
-0.0039177828
-0.0032069842
-0.0025498253
-0.0019268551
-0.0013633538
-0.00069071426
-0.00056458199
-0.04011166
-0.041138496
-0.042222473
-0.043420358
-0.044495928
-0.045368114
-0.046063528
-0.046599627
-0.046966871
-0.047152734
-0.047152441
-0.046966
-0.046594877
-0.046041924
-0.045312201
-0.044413169
-0.043354434
-0.042147477
-0.040805448
-0.039342943
-0.037775711
-0.036120335
-0.034393898
-0.032613656
-0.030796701
-0.028959657
-0.027118395
-0.025287787
-0.023481501
-0.021711829
-0.019989574
-0.018323973
-0.016722665
-0.015191702
-0.013735594
-0.012357385
-0.011058746
-0.0098400971
-0.0087007198
-0.0076388801
-0.0066519271
-0.0057363695
-0.0048878605
-0.0041012853
-0.0033698874
-0.0026880362
-0.0020376412
-0.0014433463
-0.00075092296
-0.00056213432
-0.03371499
-0.034746116
-0.035829474
-0.037011477
-0.038099707
-0.03902618
-0.039810319
-0.040464463
-0.040978886
-0.04134109
-0.041544698
-0.041587205
-0.041467332
-0.041184983
-0.040741978
-0.040142274
-0.039391831
-0.038498435
-0.037471584
-0.036322331
-0.035063077
-0.033707317
-0.032269366
-0.03076407
-0.029206517
-0.027611738
-0.025994429
-0.024368696
-0.022747822
-0.021144077
-0.019568554
-0.018031054
-0.016540011
-0.015102448
-0.013723976
-0.012408827
-0.011159904
-0.0099788605
-0.0088661868
-0.0078212978
-0.0068426121
-0.0059276139
-0.0050728322
-0.0042739441
-0.003524972
-0.0028209594
-0.0021455859
-0.001521766
-0.00081045332
-0.00055865402
-0.027997415
-0.029007491
-0.030065578
-0.031209582
-0.032283489
-0.033230783
-0.034065584
-0.034796489
-0.035414089
-0.035906419
-0.036266267
-0.036489477
-0.036572842
-0.036514093
-0.036312536
-0.035969303
-0.035487292
-0.034871087
-0.034126908
-0.033262528
-0.032287143
-0.03121119
-0.030046136
-0.028804246
-0.02749834
-0.026141528
-0.024746954
-0.023327544
-0.021895771
-0.020463451
-0.019041553
-0.017640052
-0.016267813
-0.014932511
-0.013640584
-0.012397218
-0.011206363
-0.010070766
-0.0089920233
-0.0079706388
-0.0070060749
-0.0060967982
-0.0052402543
-0.0044329692
-0.003669844
-0.0029466221
-0.0022488247
-0.0015974324
-0.00086695626
-0.00055735917
-0.022906564
-0.023878986
-0.024895448
-0.025986829
-0.027027353
-0.02797046
-0.028826383
-0.029601024
-0.030285643
-0.030869169
-0.03134416
-0.031705521
-0.031948829
-0.032070347
-0.032067567
-0.031939464
-0.031686502
-0.031310616
-0.03081522
-0.030205187
-0.029486781
-0.02866755
-0.027756179
-0.026762319
-0.025696392
-0.024569378
-0.023392591
-0.022177452
-0.020935261
-0.019676994
-0.018413106
-0.017153362
-0.015906696
-0.014681098
-0.013483529
-0.01231987
-0.011194893
-0.010112263
-0.0090745451
-0.0080832368
-0.0071387879
-0.0062406265
-0.0053871267
-0.0045756997
-0.0038021791
-0.0030630542
-0.0023455867
-0.0016691061
-0.00091917826
-0.00055936532
-0.01839187
-0.019316758
-0.020281756
-0.021311895
-0.022306506
-0.023227621
-0.024082613
-0.024875464
-0.025598311
-0.026241201
-0.026796902
-0.027259933
-0.02762524
-0.027888215
-0.028045155
-0.028093506
-0.028031906
-0.027860212
-0.027579551
-0.027192344
-0.026702297
-0.026114348
-0.025434589
-0.024670149
-0.023829054
-0.02292007
-0.021952517
-0.020936082
-0.019880614
-0.018795931
-0.017691631
-0.016576921
-0.015460452
-0.014350195
-0.013253321
-0.012176124
-0.011123953
-0.010101179
-0.0091111707
-0.0081562901
-0.0072378856
-0.006356295
-0.0055108025
-0.0046997134
-0.0039198114
-0.0031683749
-0.0024342488
-0.0017355793
-0.00096659003
-0.00056427767
-0.014405662
-0.015278212
-0.016186921
-0.017151896
-0.018093333
-0.018980629
-0.019819039
-0.020611167
-0.021350126
-0.022027184
-0.022635611
-0.023169939
-0.023624928
-0.023995575
-0.024277502
-0.024467168
-0.024561939
-0.02456014
-0.024461128
-0.024265352
-0.023974384
-0.023590913
-0.023118715
-0.022562598
-0.02192831
-0.021222434
-0.02045225
-0.019625586
-0.018750659
-0.017835894
-0.016889762
-0.015920606
-0.014936488
-0.013945041
-0.012953347
-0.011967822
-0.010994134
-0.010037131
-0.0091007917
-0.0081881854
-0.0073014409
-0.0064417227
-0.005609176
-0.0048029799
-0.0040208556
-0.0032608975
-0.0025133853
-0.0017957432
-0.0010089985
-0.00057094352
-0.010904545
-0.011723631
-0.012574931
-0.013474348
-0.014359433
-0.015205861
-0.016017299
-0.016795351
-0.017534108
-0.018226073
-0.018865184
-0.019446254
-0.019964166
-0.02041388
-0.020790744
-0.021090676
-0.021310243
-0.02144672
-0.021498181
-0.02146357
-0.021342761
-0.02113659
-0.020846863
-0.020476338
-0.020028694
-0.019508462
-0.018920939
-0.018272082
-0.017568388
-0.016816751
-0.016024319
-0.015198346
-0.014346041
-0.013474431
-0.012590223
-0.01169969
-0.010808556
-0.0099219138
-0.0090441407
-0.0081788372
-0.0073287686
-0.006495817
-0.0056809096
-0.0048840506
-0.0041038607
-0.0033392549
-0.0025818272
-0.001848648
-0.0010462871
-0.00057808452
-0.0078495421
-0.0086167881
-0.0094123622
-0.010248555
-0.011077344
-0.011879737
-0.012658176
-0.01341352
-0.014140787
-0.014833658
-0.015486805
-0.016095477
-0.016654881
-0.017160181
-0.017606741
-0.017990283
-0.018306948
-0.01855337
-0.018726757
-0.018824977
-0.018846629
-0.01879109
-0.01865856
-0.018450077
-0.018167513
-0.017813559
-0.017391674
-0.016906024
-0.016361399
-0.015763112
-0.015116888
-0.014428739
-0.013704835
-0.012951379
-0.012174473
-0.01138
-0.010573506
-0.0097600974
-0.0089443417
-0.0081301835
-0.0073208645
-0.0065188532
-0.0057257561
-0.004942327
-0.0041680258
-0.0034025673
-0.0026387629
-0.0018935819
-0.0010783339
-0.00058466923
-0.0052071493
-0.0059258451
-0.0066691587
-0.0074462185
-0.0082209845
-0.0089789659
-0.0097216512
-0.010449323
-0.011157831
-0.011841933
-0.012497034
-0.013118892
-0.013703139
-0.014245292
-0.014740925
-0.015185798
-0.015575912
-0.015907574
-0.016177473
-0.016382764
-0.016521141
-0.016590897
-0.016590984
-0.01652105
-0.016381466
-0.016173338
-0.015898496
-0.015559467
-0.015159432
-0.014702162
-0.01419194
-0.01363347
-0.013031772
-0.012392075
-0.011719699
-0.011019947
-0.01029798
-0.0095587139
-0.0088067096
-0.0080460723
-0.0072803549
-0.0065124696
-0.0057445825
-0.0049781007
-0.0042132434
-0.0034504813
-0.0026837544
-0.0019300842
-0.0011050021
-0.00059000731
-0.0029514409
-0.0036265413
-0.0043227408
-0.0050464896
-0.0057716248
-0.0064874043
-0.0071945533
-0.0078928967
-0.0085790041
-0.0092485783
-0.0098977113
-0.010522669
-0.011119552
-0.011684293
-0.012212787
-0.012700984
-0.013144937
-0.013540855
-0.013885174
-0.014174625
-0.014406311
-0.014577767
-0.014687024
-0.014732664
-0.014713863
-0.014630425
-0.014482799
-0.014272082
-0.014000009
-0.013668924
-0.013281734
-0.01284185
-0.012353113
-0.011819711
-0.011246079
-0.010636804
-0.0099965147
-0.0093297731
-0.0086409651
-0.007934192
-0.0072131616
-0.0064810863
-0.0057405634
-0.0049935429
-0.004240907
-0.0034838139
-0.0027172389
-0.0019583307
-0.0011264664
-0.00059386661
-0.0010565519
-0.0016931776
-0.0023477939
-0.0030244593
-0.0037050931
-0.0043820677
-0.0050554982
-0.0057248317
-0.0063872371
-0.0070392208
-0.0076774801
-0.0082987565
-0.0088996021
-0.0094763763
-0.010025336
-0.010542699
-0.011024685
-0.011467557
-0.011867678
-0.012221574
-0.012525996
-0.012777986
-0.012974933
-0.01311464
-0.013195372
-0.013215909
-0.013175578
-0.013074282
-0.012912516
-0.012691363
-0.012412483
-0.01207808
-0.01169086
-0.011253969
-0.010770924
-0.010245531
-0.0096817891
-0.0090837937
-0.0084556284
-0.0078012553
-0.0071244006
-0.0064284431
-0.005716285
-0.0049903033
-0.0042519355
-0.0035029416
-0.0027392261
-0.0019780833
-0.0011424187
-0.00059586686
0.00047361281
-0.00013159279
-0.00075191107
-0.0013896495
-0.0020331188
-0.0026771261
-0.0033212918
-0.0039647641
-0.0046051928
-0.0052397351
-0.0058655912
-0.0064799113
-0.0070796477
-0.0076615514
-0.0082222291
-0.0087581871
-0.0092658599
-0.0097416455
-0.010181949
-0.010583235
-0.010942079
-0.011255231
-0.011519667
-0.011732653
-0.011891803
-0.011995133
-0.012041111
-0.012028699
-0.011957388
-0.011827219
-0.011638789
-0.011393254
-0.011092306
-0.010738143
-0.010333413
-0.0098811614
-0.0093847468
-0.0088477573
-0.008273911
-0.007666949
-0.0070305202
-0.0063680658
-0.005682683
-0.004977065
-0.0042530922
-0.0035130245
-0.0027535712
-0.001992146
-0.0011548241
-0.00059704029
0.0016829183
0.0011036201
0.00051142027
-9.438211e-05
-0.00070706353
-0.0013233677
-0.0019425371
-0.0025634734
-0.0031841908
-0.0038023539
-0.0044155618
-0.005021296
-0.0056168394
-0.006199274
-0.0067655137
-0.0073123314
-0.0078363803
-0.008334221
-0.0088023563
-0.0092372722