/*--------------------------------*- C++ -*----------------------------------*\
  =========                 |
  \\      /  F ield         | OpenFOAM: The Open Source CFD Toolbox
   \\    /   O peration     | Website:  https://openfoam.org
    \\  /    A nd           | Version:  6
     \\/     M anipulation  |
\*---------------------------------------------------------------------------*/
FoamFile
{
    version     2.0;
    format      ascii;
    class       volSymmTensorField;
    location    "280";
    object      UPrime2Mean;
}
// * * * * * * * * * * * * * * * * * * * * * * * * * * * * * * * * * * * * * //

dimensions      [0 2 -2 0 0 0 0];

internalField   nonuniform List<symmTensor> 
9200
(
(7.0885705e-05 -5.5022187e-05 2.5656786e-22 4.4154707e-05 -1.3712798e-22 4.1548741e-39)
(0.00043749986 -0.000350204 6.5928774e-22 0.000281406 -4.9196658e-22 4.5202931e-39)
(0.00088569554 -0.0006865558 7.9116355e-23 0.00053533434 -5.9975271e-23 2.4781776e-39)
(0.0013981117 -0.0010118446 -9.9550496e-22 0.00074063404 6.9943493e-22 4.9413306e-39)
(0.0019048204 -0.0013016401 4.841232e-23 0.00090507531 -3.9800289e-23 7.2438475e-40)
(0.0023708474 -0.0015428856 4.2097911e-22 0.0010284161 -2.7884394e-22 1.144648e-40)
(0.002771789 -0.0017308888 -9.1822191e-23 0.0011148206 6.315111e-23 3.2825654e-40)
(0.0030877879 -0.0018657828 8.3417265e-23 0.0011713293 -5.5788753e-23 2.2108007e-40)
(0.0033048822 -0.0019500357 4.0881905e-22 0.0012047216 -2.4747032e-22 6.3087483e-40)
(0.0034155501 -0.0019873482 3.1862117e-23 0.0012207698 -1.9383209e-23 1.8007166e-42)
(0.0034188063 -0.0019821384 -4.4273681e-22 0.0012242457 2.71109e-22 3.3907866e-40)
(0.0033201911 -0.0019392229 3.7160475e-22 0.0012189758 -2.3588691e-22 4.6877125e-41)
(0.0031313664 -0.0018636131 -6.6352851e-22 0.0012079262 4.4487413e-22 7.2639383e-40)
(0.0028691603 -0.0017603925 -3.37578e-22 0.0011933231 2.3073918e-22 4.6957808e-41)
(0.0025540818 -0.0016346372 8.7754012e-23 0.0011767835 -6.463065e-23 5.9638156e-42)
(0.0022084405 -0.0014913456 -3.3186968e-22 0.0011594428 2.5780316e-22 6.3080307e-41)
(0.0018542165 -0.0013353746 2.9254987e-22 0.0011421359 -2.4616032e-22 7.6343452e-41)
(0.0015109171 -0.0011714633 2.1895993e-22 0.0011259963 -1.9282252e-22 3.0833328e-40)
(0.0011951806 -0.0010040141 -7.1150723e-24 0.0011125171 1.5482774e-23 5.6663003e-41)
(0.00092544305 -0.00083606654 -3.7968896e-24 0.00109062 1.3615581e-23 7.0236532e-41)
(9.3575866e-05 -6.2551427e-05 2.6716181e-23 4.2938138e-05 -1.0219512e-23 7.3114291e-41)
(0.00055825997 -0.0003869022 6.9822441e-22 0.00026897126 -4.5417456e-22 4.8213459e-39)
(0.0011113648 -0.00074733273 -2.2556644e-22 0.00050542922 1.513407e-22 2.6186706e-39)
(0.0017059932 -0.0010813584 -1.7874999e-21 0.00069319576 1.116466e-21 1.1434979e-38)
(0.0022608383 -0.001366191 -6.2523985e-23 0.00084042759 3.9524313e-23 1.442581e-40)
(0.0027352234 -0.0015902962 1.3860143e-21 0.00094833563 -8.1664827e-22 3.7847769e-39)
(0.0031037756 -0.0017515979 -5.7121528e-22 0.001022356 3.3303594e-22 1.3022134e-40)
(0.0033500248 -0.0018532312 -1.7267479e-22 0.001070139 9.9805699e-23 4.6537851e-41)
(0.0034668673 -0.0019004936 6.577743e-22 0.0010986695 -3.8245617e-22 3.5599442e-40)
(0.0034563715 -0.0018995647 -8.0002158e-22 0.0011136546 4.7279492e-22 4.092432e-40)
(0.0033290423 -0.0018569215 -5.6939187e-22 0.0011195697 3.4491645e-22 5.0454868e-40)
(0.0031026852 -0.0017789989 1.2345009e-21 0.0011197497 -7.7779658e-22 2.5667894e-39)
(0.0028006513 -0.0016720181 5.7696321e-22 0.0011165094 -3.8692816e-22 1.8085302e-40)
(0.0024495021 -0.0015419281 -9.1323772e-22 0.0011112873 6.5391119e-22 8.9112042e-40)
(0.0020763573 -0.0013944019 1.6479775e-22 0.0011047875 -1.2720697e-22 7.4088415e-41)
(0.0017062968 -0.0012348443 -3.6752359e-22 0.0010971028 3.1791568e-22 1.9828903e-40)
(0.0013601487 -0.0010683915 -1.5217312e-22 0.0010878565 1.5513421e-22 6.223559e-41)
(0.001052912 -0.00089980746 4.7125059e-22 0.0010763923 -5.2252485e-22 1.0070025e-39)
(0.00079377665 -0.00073294228 2.2459157e-22 0.0010607436 -2.966298e-22 1.921156e-40)
(0.000589096 -0.00057160887 -9.7705165e-23 0.0010308734 1.2079266e-22 1.4358756e-39)
(0.00011921458 -6.791023e-05 -2.2481327e-22 3.9551735e-05 9.5690317e-23 1.8787074e-39)
(0.00068716312 -0.00040836134 -3.7515383e-22 0.00024332076 2.0841266e-22 1.958402e-39)
(0.0013435229 -0.00077684019 -4.2728853e-22 0.00045180054 2.4896601e-22 4.895215e-39)
(0.0020077959 -0.0011046395 1.4320426e-23 0.00061492065 -7.8665643e-24 5.3154887e-43)
(0.0025890597 -0.0013718895 1.4971093e-23 0.00074097644 -7.138432e-24 3.5173541e-39)
(0.003043891 -0.0015698527 4.8556854e-22 0.00083258342 -2.5862632e-22 9.8372804e-40)
(0.0033502662 -0.0016997869 4.7633438e-23 0.0008959719 -2.3713907e-23 4.0719173e-40)
(0.003500106 -0.0017679583 -8.2869264e-22 0.00093873932 4.4412088e-22 2.6062311e-40)
(0.003498105 -0.001782206 9.8361504e-22 0.00096740336 -5.4023088e-22 4.922218e-40)
(0.0033600508 -0.0017505995 3.2465009e-22 0.00098696927 -1.8706092e-22 5.3891792e-40)
(0.0031104969 -0.0016809015 -8.9668985e-22 0.0010010409 5.3947047e-22 1.1152604e-39)
(0.0027798921 -0.0015803499 -2.8245158e-22 0.0010119678 1.8198966e-22 3.6401496e-40)
(0.0024012168 -0.0014556497 1.0171001e-22 0.0010210204 -7.0519542e-23 9.8512841e-40)
(0.002006484 -0.0013130756 2.4636977e-22 0.0010285855 -1.896859e-22 1.4213463e-40)
(0.001623625 -0.0011585871 -8.6848025e-23 0.0010343649 7.4628839e-23 1.0848546e-40)
(0.0012742258 -0.00099788944 2.0232828e-22 0.0010375734 -2.0074392e-22 8.6401529e-41)
(0.0009723955 -0.00083641202 -1.3975416e-22 0.0010371341 1.6323161e-22 3.3292125e-41)
(0.00072478849 -0.00067916481 -2.870484e-22 0.0010318005 3.9351778e-22 8.0616639e-40)
(0.00053172541 -0.0005303762 -1.0453007e-23 0.0010199306 1.1120211e-23 7.2278742e-40)
(0.00038954969 -0.00039397593 1.0025648e-22 0.00099804364 -2.1438375e-22 8.3331121e-41)
(0.00014694447 -7.0307782e-05 -1.7860823e-22 3.429656e-05 6.58123e-23 9.3306939e-40)
(0.00081761352 -0.00041099638 2.7472851e-22 0.00020710589 -1.3475667e-22 1.744233e-40)
(0.0015682358 -0.00077001036 2.4367416e-22 0.00038043531 -1.2013012e-22 2.0161693e-40)
(0.0022829958 -0.0010773825 5.3134232e-22 0.00051501419 -2.5360066e-22 2.1740502e-39)
(0.0028646306 -0.0013172558 4.6820021e-22 0.00061889444 -2.222782e-22 9.6721004e-40)
(0.0032715658 -0.0014845518 -8.2526385e-22 0.00069569385 3.9184887e-22 7.3923981e-40)
(0.0034905934 -0.001583871 -4.6255621e-22 0.00075170465 2.2349667e-22 2.1047169e-40)
(0.0035273081 -0.001623936 0 0.00079370235 0 0)
(0.0034023477 -0.0016140909 5.0710498e-22 0.00082705642 -2.7488806e-22 2.7098606e-39)
(0.0031473967 -0.001563128 -2.2099282e-22 0.00085549956 1.2994775e-22 1.0265229e-39)
(0.0028006992 -0.0014790003 -1.2999507e-21 0.00088130859 7.7351684e-22 9.1386651e-40)
(0.0024023635 -0.0013688835 -1.667191e-22 0.0009055111 1.0480848e-22 1.8350327e-40)
(0.001989885 -0.0012394043 6.4489086e-22 0.0009281198 -4.7835007e-22 1.2374203e-39)
(0.001594501 -0.0010968721 3.5738361e-23 0.00094839259 -2.3386834e-23 5.1060499e-40)
(0.0012388994 -0.00094739056 -1.0037068e-23 0.00096510633 9.7832481e-24 3.6006711e-43)
(0.00093650229 -0.00079680298 1.0832194e-22 0.00097683876 -1.2465949e-22 6.3380695e-41)
(0.0006922029 -0.00065049464 3.1697192e-25 0.00098221912 2.5148426e-24 7.393015e-41)
(0.00050413953 -0.00051312085 -1.9346672e-22 0.00098005013 3.2363396e-22 1.9459494e-40)
(0.00036587857 -0.00038831938 -1.0804833e-22 0.0009697514 2.2540827e-22 1.3524176e-40)
(0.00026874891 -0.00027877324 5.5300068e-23 0.00095266676 -1.6592754e-22 8.42292e-40)
(0.0001755004 -6.9067475e-05 1.3506314e-22 2.7665075e-05 -4.3034856e-23 3.6706081e-40)
(0.00094140443 -0.00039246947 5.6288225e-22 0.00016402485 -2.2451206e-22 3.3071488e-39)
(0.0017697185 -0.00072467162 4.4527156e-22 0.00029883503 -1.833989e-22 2.0976772e-40)
(0.0025105459 -0.00099975089 4.9500301e-22 0.00040410318 -2.0217282e-22 1.163404e-39)
(0.0030651678 -0.0012065162 -7.6318574e-22 0.00048716972 3.1515348e-22 1.833384e-39)
(0.0033996899 -0.0013436233 2.9757442e-23 0.00055200313 -9.5773236e-24 1.7440738e-40)
(0.0035154028 -0.0014180668 4.3896109e-23 0.00060415301 -1.9091254e-23 1.4704191e-42)
(0.0034358352 -0.0014395096 6.2594964e-22 0.00064889523 -2.909097e-22 6.5590787e-40)
(0.003199508 -0.0014171926 8.4757816e-23 0.00068993884 -4.1807815e-23 5.9220456e-42)
(0.0028531237 -0.0013592413 -2.2828187e-22 0.00072937454 1.2897918e-22 3.5466621e-40)
(0.0024450006 -0.0012728174 7.4452081e-22 0.00076790585 -4.6051055e-22 2.4744621e-39)
(0.0020193068 -0.0011645112 -5.4312147e-22 0.00080510687 3.5697409e-22 2.1451724e-40)
(0.0016117397 -0.0010407096 -1.0268166e-21 0.00083972299 7.9937277e-22 1.520958e-39)
(0.0012471654 -0.00090776163 -3.4095365e-23 0.00087001147 3.1260017e-23 3.2144755e-42)
(0.00093932183 -0.0007718755 3.6873501e-22 0.00089409828 -4.1079491e-22 1.2290823e-39)
(0.00069223892 -0.00063880679 0 0.00091032055 0 0)
(0.00050272662 -0.00051346263 4.6412339e-23 0.00091747747 -6.6757209e-23 3.1968488e-41)
(0.00036319858 -0.00039957623 -2.3544349e-23 0.0009148845 5.1260285e-23 4.7537713e-41)
(0.00026410253 -0.0002995639 -2.3764901e-23 0.00090299702 5.1802034e-23 1.2519492e-41)
(0.00019573112 -0.00021450189 1.1525166e-23 0.00088559404 -4.8489077e-23 8.5449318e-41)
(0.00020333667 -6.3782191e-05 2.9542326e-22 2.0347755e-05 -7.6117769e-23 1.4844112e-39)
(0.0010498453 -0.00035243153 2.9119827e-23 0.00011863816 -9.558669e-24 2.748104e-42)
(0.0019328522 -0.00064261334 -8.3644266e-23 0.00021548367 2.824315e-23 1.216909e-41)
(0.0026726875 -0.00087731602 8.680471e-23 0.00029336223 -2.791977e-23 2.4040128e-40)
(0.0031753365 -0.0010499157 -5.2613081e-22 0.00035844139 1.8442057e-22 4.5112468e-40)
(0.0034207364 -0.0011618184 -2.5360327e-22 0.00041434009 9.2239081e-23 4.081943e-41)
(0.0034292619 -0.0012205091 1.8076619e-22 0.00046523536 -5.5413525e-23 1.2845911e-39)
(0.0032442889 -0.0012345079 -6.5344281e-24 0.00051451696 7.4021418e-24 1.004852e-40)
(0.002921054 -0.001211231 -4.3023495e-22 0.00056401807 2.1329085e-22 1.063029e-39)
(0.002517284 -0.0011570273 7.4800795e-22 0.00061407765 -3.8806399e-22 3.1451161e-40)
(0.0020855067 -0.0010777941 -2.0274839e-23 0.00066379765 2.8331132e-23 5.519635e-40)
(0.0016676687 -0.0009795273 -5.9681558e-22 0.00071136092 4.3261109e-22 1.5250224e-39)
(0.0012924851 -0.00086855072 0 0.00075442553 0 0)
(0.00097545381 -0.00075134872 1.4642689e-22 0.00079056434 -1.6537513e-22 8.1718767e-40)
(0.00072092336 -0.00063410378 7.5415715e-24 0.0008176865 -1.5643994e-23 4.4710916e-41)
(0.00052527833 -0.0005221426 -1.7849803e-22 0.00083437412 2.7945897e-22 9.5071199e-40)
(0.00038030761 -0.00041948758 -4.0436604e-23 0.0008400419 7.2167919e-23 1.9922069e-41)
(0.00027606495 -0.0003286572 -1.2513643e-23 0.00083484888 3.3748208e-23 3.188705e-41)
(0.00020278261 -0.00025078612 -1.6312108e-23 0.00082018663 4.5535013e-23 1.2438198e-41)
(0.00015185373 -0.00018578114 2.9558066e-23 0.00080065577 -1.1160818e-22 1.1872163e-40)
(0.00022879988 -5.4416033e-05 1.1386173e-22 1.3164891e-05 -2.1908402e-23 2.3508055e-40)
(0.0011348821 -0.0002927787 -8.1825359e-22 7.5798025e-05 2.0590062e-22 5.1120731e-39)
(0.0020452443 -0.00052955156 -7.1874424e-23 0.00013869418 2.0424461e-23 4.7733532e-40)
(0.002757469 -0.0007203267 -2.1747295e-22 0.00019295091 6.412223e-23 2.4007414e-39)
(0.0031889571 -0.00086198138 -1.6495148e-22 0.00024327101 4.5752556e-23 3.3247701e-41)
(0.0033387079 -0.00095662924 -9.3443596e-22 0.00029244345 2.8931376e-22 4.4087608e-40)
(0.0032484207 -0.0010097362 -4.5877081e-22 0.000343045 1.6138777e-22 3.549092e-40)
(0.0029801297 -0.0010265773 8.8987005e-22 0.00039659596 -3.3468078e-22 2.8807533e-40)
(0.0026016222 -0.0010114605 1.526898e-22 0.00045314859 -7.834288e-23 3.6390361e-40)
(0.0021756425 -0.00096850859 -1.9634855e-22 0.00051139721 8.8968618e-23 1.2463002e-40)
(0.0017526702 -0.00090249086 9.1719556e-23 0.00056897624 -3.3833082e-23 4.6693951e-40)
(0.0013674941 -0.00081916116 -1.7900236e-23 0.00062288845 2.331776e-23 1.18357e-40)
(0.0010392638 -0.0007250166 0 0.00067003291 0 0)
(0.00077408996 -0.00062663701 9.8640617e-23 0.00070773471 -1.0200683e-22 2.8839886e-41)
(0.00056892873 -0.0005299027 -2.1059493e-22 0.00073416268 2.7310003e-22 3.9192706e-40)
(0.0004155548 -0.00043937519 -6.8509601e-23 0.00074855422 1.0413021e-22 3.3895368e-41)
(0.00030381416 -0.00035799867 1.1914264e-22 0.0007511897 -2.3601768e-22 4.6747779e-40)
(0.000223818 -0.00028715279 -2.5880384e-23 0.00074312509 3.4576507e-23 1.0016437e-40)
(0.00016705679 -0.00022703218 -1.4883295e-24 0.00072641783 -3.1029321e-24 1.1234441e-41)
(0.00012666278 -0.00017698195 2.7260815e-23 0.0007054729 -8.0045047e-23 1.0332704e-41)
(0.00025031438 -4.1338964e-05 8.2779898e-23 6.9566123e-06 -1.0859495e-23 1.4721474e-40)
(0.0011901237 -0.00021749423 -7.5999944e-22 3.9964456e-05 1.3691168e-22 2.3453018e-39)
(0.0020987541 -0.00039437291 -5.9369268e-22 7.5447967e-05 1.1769357e-22 2.8059719e-39)
(0.0027600825 -0.00054213249 8.5206895e-22 0.00011067486 -1.7769467e-22 6.8882774e-40)
(0.0031092035 -0.00065909783 6.4498259e-22 0.00014895205 -1.4473197e-22 1.4400853e-40)
(0.0031672531 -0.00074533779 -4.7424232e-22 0.00019222151 1.0435254e-22 1.4906683e-39)
(0.0029964154 -0.0008018016 1.5420835e-22 0.00024173887 -5.8431373e-23 6.3092606e-40)
(0.0026732357 -0.0008289933 9.0761785e-22 0.00029753688 -3.2011639e-22 7.1200684e-40)
(0.0022719599 -0.00082763369 3.988312e-22 0.00035818907 -1.5595764e-22 9.0321726e-41)
(0.0018540374 -0.00079987841 -3.9297748e-22 0.00042096719 1.991788e-22 2.3243708e-40)
(0.0014630023 -0.0007498994 -5.3402421e-22 0.00048226482 3.1580896e-22 2.796381e-40)
(0.0011240239 -0.00068360232 -1.4590929e-23 0.0005382153 1.0457002e-23 2.9163666e-43)
(0.00084679134 -0.00060772173 1.5426489e-22 0.00058536813 -1.3373686e-22 4.5364531e-41)
(0.00063005063 -0.00052871723 -5.6130625e-24 0.00062124459 1.7511769e-23 6.8208578e-41)
(0.00046626987 -0.00045187296 -6.1650949e-24 0.00064464099 2.8516767e-23 1.8460797e-40)
(0.00034542625 -0.00038082729 4.7615488e-24 0.00065563991 -3.7277786e-23 3.3348541e-40)
(0.00025752349 -0.00031754491 5.4894221e-23 0.00065535814 -1.0747382e-22 9.8205754e-41)
(0.00019392449 -0.00026261562 -3.1427082e-23 0.00064553154 9.0479979e-23 2.5514215e-40)
(0.00014778511 -0.00021577345 -8.0227089e-23 0.00062849679 2.1949927e-22 4.9622687e-40)
(0.00011388351 -0.00017627388 2.6578726e-23 0.00060789749 -6.4244446e-23 1.1268757e-41)
(0.00026663754 -2.529852e-05 -2.1567415e-22 2.4632478e-06 1.7977524e-23 4.3993831e-40)
(0.0012117176 -0.00013214939 -1.7096558e-22 1.4590117e-05 1.830078e-23 4.7495484e-40)
(0.0020903276 -0.0002479163 1.306048e-21 3.0516026e-05 -1.6541416e-22 5.7999001e-39)
(0.0026831365 -0.00035726795 9.7514509e-22 5.1186135e-05 -1.4050673e-22 6.3545181e-40)
(0.0029475977 -0.00045718197 4.3829055e-22 7.9106624e-05 -6.8299866e-23 3.1173295e-40)
(0.0029269541 -0.00054285441 8.851737e-23 0.00011592444 -1.7973316e-23 3.0212022e-42)
(0.0026999488 -0.00060887625 -8.3271291e-22 0.00016227837 1.8325543e-22 1.3034857e-39)
(0.0023514731 -0.00065039916 0 0.00021729161 0 0)
(0.0019557577 -0.00066490334 -5.1169214e-22 0.00027841747 2.1892866e-22 1.0788595e-39)
(0.0015679043 -0.00065329287 -8.825801e-23 0.00034175175 5.7227352e-23 2.4406287e-40)
(0.0012219251 -0.00061972592 2.5160989e-22 0.00040272068 -1.4432114e-22 6.0518037e-41)
(0.00093338387 -0.00057046122 2.7266079e-23 0.00045694906 -3.4165472e-23 1.3425778e-40)
(0.00070442111 -0.00051232895 -1.2060016e-22 0.00050103882 1.1660729e-22 1.5679459e-40)
(0.0005291623 -0.00045140252 -9.1172208e-23 0.00053303874 1.1769676e-22 3.3465062e-40)
(0.00039819913 -0.00039221188 5.8538969e-23 0.00055252665 -5.9008847e-23 4.1202508e-41)
(0.00030161366 -0.00033754622 8.1269494e-23 0.00056036345 -1.0379546e-22 3.8410747e-41)
(0.00023061439 -0.00028868421 -7.2625354e-23 0.00055825082 1.1887476e-22 3.5885895e-41)
(0.00017815894 -0.00024583679 -9.7704993e-23 0.00054825349 2.0734927e-22 4.1530892e-40)
(0.00013896447 -0.00020866294 7.4128331e-24 0.00053262312 -1.6547475e-24 4.8559302e-41)
(0.00010914621 -0.00017656202 1.3396468e-23 0.00051402107 -4.4147976e-23 5.7402793e-41)
(0.00027682033 -7.3003962e-06 -1.4229668e-22 2.2085723e-07 3.6261757e-24 2.1520497e-40)
(0.0011983941 -4.3201851e-05 6.093132e-22 1.7060888e-06 -2.1785446e-23 1.1939411e-39)
(0.0020219628 -0.00010169609 9.3138355e-22 6.0233583e-06 -5.7127759e-23 8.6569891e-39)
(0.0025360084 -0.0001798315 -1.0951654e-21 1.5841057e-05 9.3876409e-23 2.3860855e-39)
(0.0027219514 -0.00027012934 3.9692555e-22 3.4028599e-05 -4.3214306e-23 6.0607347e-41)
(0.0026417883 -0.0003607221 1.6393382e-22 6.2946141e-05 7.5044543e-25 2.2014235e-39)
(0.0023847059 -0.00043909678 4.3022497e-23 0.0001035037 -8.6489811e-24 8.0319384e-43)
(0.0020372408 -0.00049548365 -6.1337324e-22 0.00015447926 1.4057039e-22 7.4520218e-40)
(0.0016682206 -0.00052506866 -1.3947679e-23 0.00021251081 4.7842209e-24 1.2092164e-43)
(0.0013234875 -0.00052834455 2.2968928e-22 0.00027276168 -1.1832547e-22 2.8378108e-40)
(0.0010272589 -0.00050985011 1.8101799e-23 0.00033000255 -1.8223291e-23 4.0486853e-41)
(0.0007871816 -0.00047615247 -8.2717206e-23 0.0003797164 2.2499416e-23 5.237837e-40)
(0.00060041815 -0.00043392992 -1.85031e-22 0.0004188709 1.4930772e-22 5.9906812e-41)
(0.00045894542 -0.00038867991 -1.1892977e-24 0.00044618838 1.4212055e-23 6.8212584e-41)
(0.00035327844 -0.00034419245 6.2919013e-23 0.00046195649 -8.1629171e-23 6.6965212e-41)
(0.00027459333 -0.00030262311 4.1979364e-23 0.00046756079 -6.577282e-23 6.4847392e-41)
(0.00021563339 -0.00026488343 9.7022273e-24 0.00046494558 -3.1084462e-23 1.0472313e-40)
(0.00017087713 -0.0002311128 -6.691703e-23 0.0004561677 9.3646761e-23 8.4763119e-41)
(0.00013634043 -0.0002010955 -1.3487801e-23 0.00044314775 -8.6349167e-24 3.5905674e-40)
(0.00010915794 -0.00017441167 3.7296154e-23 0.00042758133 -1.1326649e-22 5.9325531e-40)
(1.8409866e-06 -2.3009699e-07 1.839464e-23 2.8098503e-07 -3.6803155e-24 2.1028883e-40)
(8.6768908e-06 -3.6318324e-06 -2.6249213e-23 1.8656199e-06 7.273335e-24 2.0244143e-40)
(1.9435696e-05 -8.3930535e-06 5.8301956e-23 3.7194615e-06 -2.1855209e-23 1.1628978e-39)
(6.2312436e-05 -1.7713813e-05 1.6278831e-22 5.3355463e-06 -3.4746382e-23 3.9106161e-39)
(0.00013676415 -2.9228503e-05 -1.1635085e-22 6.7899187e-06 1.9847737e-23 1.0171271e-39)
(0.00024446599 -4.2127975e-05 1.4671737e-22 8.0839829e-06 -1.9955521e-23 1.1238393e-39)
(0.00038896884 -5.5976873e-05 -2.0165342e-22 9.2194624e-06 2.5678918e-23 1.2346361e-39)
(0.0005712569 -7.0339488e-05 -2.0809313e-22 1.0219611e-05 2.1836292e-23 1.305236e-39)
(0.00079052602 -8.4862133e-05 2.6219129e-22 1.1109439e-05 -2.7309878e-23 1.3803734e-39)
(0.0010453834 -9.92842e-05 -2.0380578e-22 1.1908406e-05 2.0011464e-23 7.0314636e-40)
(0.0013340753 -0.00011340947 -1.0141566e-23 1.2631263e-05 1.6993249e-25 8.1703109e-42)
(0.0016545146 -0.0001270859 5.8969988e-23 1.3289292e-05 -6.3046211e-24 2.5911841e-41)
(0.0020043813 -0.00014019362 -1.0123101e-23 1.3891133e-05 4.9284416e-25 4.1015068e-42)
(0.0023812172 -0.00015263768 3.2167198e-22 1.444372e-05 -2.9002827e-23 1.2321474e-39)
(0.0027824823 -0.00016434571 3.5645993e-25 1.4953468e-05 6.0857502e-25 2.6584256e-42)
(0.0032056131 -0.0001752724 -4.7601771e-22 1.5427447e-05 4.4670555e-23 2.5350657e-39)
(0.0036480985 -0.00018540334 8.8649911e-23 1.587322e-05 -9.3169633e-24 5.3616525e-41)
(0.0041074924 -0.00019473759 2.1604238e-22 1.6296372e-05 -2.138722e-23 6.4468074e-40)
(0.0045813646 -0.00020331389 -3.5272817e-22 1.6702438e-05 3.7266003e-23 1.827616e-39)
(0.0050669405 -0.00021139731 -1.9626904e-22 1.7087677e-05 2.2021262e-23 6.8616519e-40)
(2.0850518e-06 -9.6244028e-07 6.0626326e-24 2.4725857e-06 -2.2442425e-24 2.0838973e-41)
(1.1061404e-05 -1.2444853e-05 -1.6623928e-22 1.6439977e-05 1.2533929e-22 6.7702721e-39)
(2.482278e-05 -2.8255428e-05 3.2987385e-23 3.2767045e-05 -2.727404e-23 6.1105386e-40)
(7.3318848e-05 -5.7352288e-05 1.7517819e-22 4.7007068e-05 -1.0768126e-22 3.2687479e-39)
(0.00015429084 -9.2783746e-05 2.4351135e-22 5.9795729e-05 -1.1716126e-22 3.696419e-39)
(0.00026889463 -0.00013217277 2.9463219e-23 7.11275e-05 -1.1834807e-23 3.4725845e-41)
(0.00042027049 -0.00017421918 -7.839565e-22 8.1020277e-05 2.7219982e-22 1.8489857e-38)
(0.0006089071 -0.00021763438 -2.7708118e-23 8.968027e-05 1.150496e-23 5.3605692e-42)
(0.00083355609 -0.00026137944 4.4468889e-22 9.7327291e-05 -1.3579698e-22 3.1568231e-39)
(0.0010924189 -0.00030468855 -1.0745517e-22 0.00010413263 2.9772151e-23 1.755306e-40)
(0.0013833398 -0.00034698313 -4.0872075e-22 0.00011022617 1.1238931e-22 1.9477969e-39)
(0.0017038246 -0.00038781279 8.613954e-23 0.00011570654 -2.2106675e-23 8.8680723e-41)
(0.0020511372 -0.00042681989 3.6401178e-22 0.00012064801 -8.1802928e-23 2.0883626e-39)
(0.0024223843 -0.00046371714 1.5102256e-22 0.00012510857 -3.7688119e-23 2.3866634e-40)
(0.0028145567 -0.0004982793 3.0321395e-22 0.00012913996 -8.09116e-23 6.9079494e-40)
(0.0032245862 -0.00053035506 -2.4027259e-22 0.00013279779 6.0626289e-23 5.8412455e-40)
(0.0036494869 -0.00055988231 -2.3047553e-22 0.00013614241 5.7532493e-23 6.3882886e-40)
(0.0040862987 -0.00058683289 2.3399483e-22 0.00013922201 -6.6217818e-23 3.6976479e-40)
(0.0045312365 -0.00061130802 2.1487882e-22 0.00014209104 -5.9261201e-23 6.4580214e-40)
(0.0049798459 -0.00063432474 8.3934759e-23 0.00014473752 -2.2210317e-23 2.7408193e-40)
(2.6800496e-06 -2.4634198e-06 4.6647439e-24 6.5939932e-06 -2.3375863e-24 1.097576e-41)
(1.6720472e-05 -2.5718725e-05 1.2626451e-22 4.3885483e-05 -1.3514638e-22 2.8853903e-39)
(3.7370089e-05 -5.6838709e-05 -2.7640327e-23 8.7404632e-05 3.5623231e-23 1.5111425e-40)
(9.7638334e-05 -0.00010888585 -1.9034363e-22 0.0001253435 1.6032291e-22 3.5778686e-39)
(0.00019211085 -0.00017070789 7.0227986e-23 0.00015929807 -5.9009152e-23 1.0155019e-40)
(0.00032089799 -0.00023846631 9.3202323e-23 0.00018917973 -7.580585e-23 5.3728796e-41)
(0.00048631178 -0.00031001293 -1.1593892e-22 0.00021503055 6.1562179e-23 3.1887271e-40)
(0.0006879034 -0.00038326084 -3.0385871e-22 0.00023739927 1.7751923e-22 6.3863994e-40)
(0.00092357387 -0.00045654079 1.3302995e-22 0.00025686987 -6.4780259e-23 1.7826072e-40)
(0.0011907349 -0.00052861663 2.8265383e-22 0.000273901 -1.1783585e-22 1.0118421e-39)
(0.001486448 -0.00059854551 7.9382052e-23 0.00028884228 -5.4811011e-23 3.8200348e-41)
(0.0018074281 -0.00066558421 3.462792e-22 0.00030195812 -1.1546219e-22 1.8771787e-39)
(0.0021501301 -0.00072913162 2.9457349e-23 0.0003134441 -1.0945639e-23 7.7885073e-42)
(0.0025108169 -0.00078868997 -5.1674184e-22 0.00032344657 1.7512547e-22 3.0193411e-39)
(0.0028855802 -0.00084384936 3.842405e-23 0.00033208934 -2.5118775e-23 1.6770219e-41)
(0.0032703965 -0.0008943079 -2.4241831e-22 0.00033950212 6.7880894e-23 1.1760952e-39)
(0.0036614001 -0.00093990811 -3.4370418e-22 0.00034582699 1.3581716e-22 4.8476776e-40)
(0.0040547309 -0.00098054648 5.5975416e-22 0.00035120458 -2.1739137e-22 1.608282e-39)
(0.0044443178 -0.0010163481 2.967685e-22 0.00035586634 -1.220062e-22 3.2776715e-40)
(0.0048231774 -0.0010494942 5.9065588e-23 0.00035994008 -2.6647563e-23 7.0410491e-42)
(3.9478557e-06 -5.0944054e-06 -6.9766528e-24 1.2141642e-05 8.7798758e-24 1.6119251e-41)
(2.7414552e-05 -4.5669122e-05 -2.9260845e-22 8.0964113e-05 3.7002778e-22 9.5759026e-39)
(6.0673062e-05 -9.8485053e-05 -2.1242121e-23 0.00016112154 2.729855e-23 1.3084498e-40)
(0.00014043291 -0.00017811088 4.91535e-23 0.00023089209 -5.4410254e-23 8.3504775e-41)
(0.00025689331 -0.00026977765 -7.8665422e-24 0.0002930286 1.9992067e-24 2.1547256e-41)
(0.00040861732 -0.00036827339 2.5053124e-22 0.00034719226 -1.8373901e-22 1.57281e-39)
(0.00059663716 -0.00047059572 2.7729756e-22 0.00039343036 -1.8122645e-22 1.4289312e-39)
(0.00081910875 -0.0005739319 -8.3928183e-23 0.0004327532 4.0621364e-23 2.2510468e-40)
(0.0010726527 -0.00067605474 -3.0866306e-22 0.00046624312 1.6143389e-22 1.4317329e-39)
(0.0013534733 -0.00077529963 -6.2380591e-22 0.00049476304 3.3673858e-22 3.0378062e-39)
(0.0016574327 -0.00087037737 -1.3315273e-23 0.00051898028 -7.377075e-24 6.92894e-41)
(0.0019800442 -0.00096025424 7.9582527e-22 0.00053940369 -3.7124018e-22 4.9639029e-39)
(0.0023165412 -0.001044072 -3.2252393e-22 0.00055640814 1.2342177e-22 1.4667605e-39)
(0.0026619469 -0.0011211009 -2.0914695e-22 0.00057027034 9.1699735e-23 2.8965396e-40)
(0.003011078 -0.0011907141 -2.5685717e-23 0.0005812131 2.8252511e-23 6.2483793e-41)
(0.0033586132 -0.0012524123 4.976368e-22 0.00058945474 -2.1815281e-22 1.1889021e-39)
(0.0036995241 -0.0013058971 -2.8288013e-22 0.00059522884 1.4121625e-22 8.042001e-41)
(0.0040289253 -0.0013509956 -6.4982348e-22 0.00059883369 2.7342573e-22 2.5590816e-39)
(0.0043381382 -0.0013878705 4.3818207e-22 0.00060099908 -1.902553e-22 1.2869927e-39)
(0.0046174015 -0.0014200638 3.7773483e-22 0.00060253839 -1.5127654e-22 1.1963964e-39)
(6.3135882e-06 -9.0729358e-06 3.1333868e-23 1.8507488e-05 -3.0450472e-23 2.0619257e-40)
(4.5494284e-05 -7.3596867e-05 1.0085585e-23 0.00012358563 -2.5487111e-24 9.3331004e-41)
(9.9486976e-05 -0.00015570984 -4.039198e-22 0.00024553888 5.7807604e-22 7.8593009e-39)
(0.00020836709 -0.0002682309 -2.3202009e-22 0.00035135204 2.4639473e-22 2.4298602e-39)
(0.0003568804 -0.00039339538 1.5468047e-22 0.00044493361 -1.2316554e-22 1.4684004e-39)
(0.00054148049 -0.00052461489 1.9288435e-22 0.00052549185 -1.5541386e-22 6.9191532e-40)
(0.00076135829 -0.00065799017 -2.5087766e-22 0.00059306544 1.6387818e-22 1.6187017e-39)
(0.0010127373 -0.00079006543 -3.828652e-22 0.00064921791 2.1980585e-22 3.552066e-39)
(0.00129045 -0.00091814727 5.6828782e-22 0.00069564011 -3.3952378e-22 3.6457841e-39)
(0.0015890007 -0.0010402073 1.6259596e-22 0.00073370991 -6.5862121e-23 8.4838683e-40)
(0.0019025744 -0.0011546553 -5.1636522e-22 0.00076452053 3.4124291e-22 2.835696e-40)
(0.0022250349 -0.0012602022 2.2577358e-22 0.00078892578 -1.0273771e-22 6.5338684e-40)
(0.0025500178 -0.0013557719 0 0.00080757267 0 0)
(0.0028710073 -0.001440441 2.2116488e-22 0.00082094558 -1.077899e-22 2.559303e-40)
(0.0031813644 -0.001513408 -1.6628933e-22 0.00082942621 7.9026896e-23 1.3668637e-40)
(0.0034744363 -0.0015740196 -2.5550061e-22 0.00083335934 1.2739805e-22 1.6622671e-40)
(0.003744203 -0.0016218834 9.4921019e-23 0.00083307272 -7.6796355e-23 2.3326166e-40)
(0.0039852765 -0.0016568759 -7.7087273e-23 0.00082903362 4.5839879e-23 8.478823e-42)
(0.004187084 -0.0016793808 3.7107397e-22 0.00082285865 -1.604993e-22 1.3846822e-39)
(0.0043368843 -0.0016941608 -3.00573e-22 0.00081716062 1.4675277e-22 8.131111e-41)
(1.0269974e-05 -1.4468725e-05 3.004865e-23 2.5089913e-05 -2.5263983e-23 1.6556555e-40)
(7.3617674e-05 -0.00010975512 1.4511049e-22 0.00016745557 -1.9315908e-22 6.1955394e-40)
(0.00015906982 -0.00022881279 -1.9479421e-22 0.00033168907 2.5835534e-22 1.4744563e-39)
(0.00030846423 -0.00037916864 -3.2046391e-22 0.00047341153 3.6027802e-22 1.2360651e-39)
(0.00050008275 -0.00054061892 -9.5291902e-23 0.00059755658 1.3893104e-22 9.7528127e-40)
(0.00072753321 -0.00070510004 -2.9016648e-22 0.00070274935 2.5471734e-22 6.0702841e-40)
(0.00098743553 -0.00086776542 -1.3460288e-22 0.00078907382 8.2885718e-23 7.007262e-40)
(0.0012734445 -0.0010246327 2.3368437e-22 0.00085874139 -1.4057287e-22 1.2925916e-39)
(0.0015780289 -0.0011726854 5.5995426e-22 0.00091415883 -3.3373972e-22 4.4262021e-39)
(0.001893464 -0.0013096682 1.7295614e-22 0.00095734381 -1.0640987e-22 1.8571518e-40)
(0.0022118369 -0.0014338352 -1.6434383e-22 0.00098994716 8.7275837e-23 2.9450099e-40)
(0.0025250701 -0.0015437979 -3.022735e-23 0.0010133018 -6.7536976e-24 2.5643803e-40)
(0.0028250766 -0.0016384334 -7.865413e-22 0.001028458 4.3003518e-22 2.4442719e-39)
(0.003103915 -0.0017168234 -2.4457636e-22 0.0010362324 1.2780602e-22 2.528128e-40)
(0.0033538979 -0.0017782216 4.1083168e-22 0.0010372749 -2.3693398e-22 1.2086294e-40)
(0.0035677774 -0.0018220674 -4.1010157e-22 0.0010321346 2.2108866e-22 2.5075503e-40)
(0.0037396017 -0.0018481012 -1.4487723e-22 0.00102124 7.1223514e-23 8.0000354e-41)
(0.0038650461 -0.0018564858 3.2538872e-22 0.0010051134 -1.3739817e-22 1.2423682e-39)
(0.0039339155 -0.0018481615 4.951419e-22 0.0009863742 -2.4680511e-22 9.4341746e-40)
(0.0039307914 -0.0018287193 6.0230365e-23 0.00097081506 -2.8107683e-23 1.8356355e-41)
(1.6341929e-05 -2.1208548e-05 -8.4743789e-23 3.1342764e-05 6.8802362e-23 9.7956217e-40)
(0.00011443676 -0.00015332421 -9.3769628e-23 0.00020850412 9.5125232e-23 7.8078055e-40)
(0.00024439442 -0.00031572499 2.389051e-22 0.00041101992 -3.0144091e-22 3.6167818e-40)
(0.00044678292 -0.00050725471 3.6369626e-22 0.00058435788 -3.7641765e-22 1.6386283e-39)
(0.00069235834 -0.00070574695 4.75151e-24 0.0007342965 -4.2754174e-24 3.2516859e-43)
(0.00097091309 -0.00090154372 -9.8876961e-22 0.00085891623 8.151372e-22 9.5661144e-39)
(0.0012756231 -0.001088871 -3.8883623e-22 0.00095851674 3.3207284e-22 1.3799984e-40)
(0.0015969081 -0.0012634277 3.0147958e-22 0.00103609 -2.031993e-22 1.0495378e-39)
(0.0019243826 -0.0014221403 3.4655398e-22 0.001094878 -2.3242838e-22 6.4215788e-40)
(0.0022477867 -0.0015628137 -3.393867e-22 0.0011376683 1.8894934e-22 1.7617978e-39)
(0.0025570113 -0.001683853 -1.0017815e-21 0.0011668093 6.3088382e-22 2.5715331e-39)
(0.0028422363 -0.0017841083 6.5993432e-22 0.0011842529 -3.9899481e-22 1.0572979e-39)
(0.0030942102 -0.0018627825 3.9293528e-22 0.0011915911 -2.0479757e-22 1.2651188e-39)
(0.0033045403 -0.0019193739 -5.4630769e-22 0.0011901063 3.0080044e-22 1.0447955e-39)
(0.0034659315 -0.0019536392 2.4064304e-22 0.0011808345 -1.3840074e-22 7.0256858e-41)
(0.0035724505 -0.0019655779 4.0001255e-22 0.0011646149 -2.0562865e-22 7.7801638e-40)
(0.0036204639 -0.0019554812 1.5273782e-22 0.0011419852 -8.572743e-23 2.6601878e-41)
(0.003609308 -0.0019240954 -2.6213283e-22 0.0011132999 1.6090259e-22 3.3939695e-41)
(0.0035327997 -0.0018731613 -6.1285372e-23 0.0010817656 2.0172532e-23 1.925371e-40)
(0.0033746741 -0.0018084241 3.4469521e-22 0.0010572353 -1.9806403e-22 7.9002849e-41)
(2.5047224e-05 -2.9077821e-05 -2.475434e-24 3.6781235e-05 -2.7151922e-24 1.8361264e-41)
(0.00017025091 -0.00020243623 -3.4202213e-22 0.0002431136 3.6181347e-22 2.5670393e-39)