/*--------------------------------*- C++ -*----------------------------------*\
  =========                 |
  \\      /  F ield         | OpenFOAM: The Open Source CFD Toolbox
   \\    /   O peration     | Website:  https://openfoam.org
    \\  /    A nd           | Version:  6
     \\/     M anipulation  |
\*---------------------------------------------------------------------------*/
FoamFile
{
    version     2.0;
    format      ascii;
    class       surfaceScalarField;
    location    "152";
    object      phi_0;
}
// * * * * * * * * * * * * * * * * * * * * * * * * * * * * * * * * * * * * * //

dimensions      [0 3 -1 0 0 0 0];

internalField   nonuniform List<scalar> 
18180
(
0.00031872987
-0.00016316138
-0.00015556849
0.0013092135
-0.0013669213
0.00037643776
0.0030328932
-0.0033336309
0.0016099512
0.0055497835
-0.0059759772
0.0034590868
0.0089182128
-0.0092391061
0.0058706769
0.013192835
-0.013079566
0.0088049431
0.018421973
-0.017459888
0.012230751
0.024644646
-0.022345859
0.016123186
0.031887422
-0.027703389
0.020460613
0.040161345
-0.033495894
0.025221971
0.049459243
-0.039682541
0.030384642
0.05975381
-0.046217326
0.035922759
0.070996833
-0.053048982
0.041805959
0.08312005
-0.060121732
0.047998515
0.096038234
-0.067376999
0.054458815
0.10965503
-0.074756173
0.061139377
0.12387097
-0.082204277
0.067988338
0.1385987
-0.089674272
0.07494654
0.1538368
-0.097149027
0.08191093
-0.10462617
0.088679098
0.16978387
0.00039749776
-0.00056065913
0.0016095974
-0.002579021
0.0036893241
-0.0054133576
0.0066874544
-0.0089741075
0.010650669
-0.013202321
0.015617894
-0.018046791
0.021616292
-0.023458286
0.0286573
-0.029386867
0.036732997
-0.035779087
0.045813208
-0.042576104
0.055843763
-0.049713096
0.066746288
-0.057119852
0.078419754
-0.064722448
0.090743878
-0.072445855
0.10358417
-0.08021729
0.11679802
-0.087970022
0.13024089
-0.095647145
0.14377308
-0.10320647
0.15725867
-0.11063462
-0.11786209
0.17049459
0.00048062419
-0.0010412833
0.0019187012
-0.004017098
0.0043524854
-0.0078471418
0.0078165749
-0.012438197
0.012337682
-0.017723428
0.017929232
-0.02363834
0.024586282
-0.030115336
0.032281252
-0.037081837
0.040960891
-0.044458726
0.050544981
-0.052160194
0.060927135
-0.06009525
0.07197788
-0.068170596
0.083549877
-0.076294445
0.095484892
-0.084380871
0.10762177
-0.092354167
0.11980434
-0.10015259
0.13188808
-0.10773089
0.14374355
-0.11506194
0.15524876
-0.12213983
-0.12891447
0.16630114
0.00056617052
-0.0016074538
0.0022279456
-0.0056788731
0.0050006181
-0.010619814
0.0088940226
-0.016331601
0.013905276
-0.022734681
0.020011907
-0.029744971
0.02716652
-0.037269949
0.035293457
-0.045208774
0.044287905
-0.053453174
0.054017831
-0.06189012
0.064328779
-0.070406198
0.075051193
-0.078893011
0.086009588
-0.087252839
0.09703256
-0.095403843
0.10796252
-0.10328413
0.11866401
-0.11085408
0.12902969
-0.11809657
0.138983
-0.12501525
0.14847493
-0.13163176
-0.13794536
0.15750582
0.00065088714
-0.002258341
0.002524345
-0.0075523309
0.0056036417
-0.013699111
0.0098644771
-0.020592437
0.015264629
-0.028134834
0.021736435
-0.036216776
0.029182513
-0.044716028
0.037474932
-0.053501193
0.046458045
-0.062436287
0.055954884
-0.071386959
0.06577648
-0.080227795
0.075733061
-0.088849591
0.085645763
-0.097165541
0.095357435
-0.10511552
0.10474124
-0.11266794
0.11370621
-0.11981905
0.12219938
-0.12658973
0.13020456
-0.13302043
0.13773798
-0.13916518
-0.14506772
0.14486034
0.00073063677
-0.0029889777
0.0027920897
-0.0096137838
0.0061265815
-0.017033603
0.010666724
-0.025132579
0.016322667
-0.033790777
0.022975266
-0.042869375
0.030474457
-0.052215218
0.03864243
-0.061669166
0.047281223
-0.071075079
0.056183769
-0.080289505
0.06514692
-0.089190946
0.073984629
-0.0976873
0.082539507
-0.10572042
0.090691317
-0.11326732
0.09836146
-0.12033808
0.1055133
-0.12697088
0.11214877
-0.13322521
0.11830237
-0.13917403
0.12403358
-0.14489639
-0.15046343
0.12942928
0.00080073214
-0.0037897099
0.0030139194
-0.011826971
0.0065329012
-0.020552585
0.011240063
-0.029839741
0.016992713
-0.039543427
0.023618565
-0.049495227
0.030918238
-0.059514892
0.038673343
-0.069424271
0.046658798
-0.079060535
0.054657421
-0.088288128
0.062474479
-0.097008003
0.06994997
-0.10516279
0.07696697
-0.11273742
0.083455097
-0.11975545
0.089389097
-0.12627208
0.094783289
-0.13236508
0.099683267
-0.13812519
0.10415645
-0.1436472
0.10828304
-0.14902298
-0.15433368
0.1121533
0.00085605962
-0.0046457695
0.0031720638
-0.014142975
0.006787232
-0.024167753
0.011529812
-0.034582321
0.017203447
-0.045217062
0.023586564
-0.055878345
0.030439893
-0.06636822
0.037519346
-0.076503724
0.044591815
-0.086133004
0.051451016
-0.09514733
0.05793064
-0.10348763
0.063912776
-0.11114493
0.069330635
-0.11815528
0.074165674
-0.12459049
0.078440225
-0.13054663
0.082207295
-0.13613215
0.085539448
-0.14145734
0.088518495
-0.14662625
0.091227281
-0.15173177
-0.15685216
0.093745753
0.0008902632
-0.0055360327
0.003248286
-0.016500998
0.0068576275
-0.027777094
0.011492472
-0.039217166
0.01690682
-0.050631409
0.022838907
-0.061810432
0.029023682
-0.072552995
0.035209261
-0.082689304
0.041173936
-0.092097678
0.046740399
-0.10071379
0.051784651
-0.10853188
0.056238394
-0.11559867
0.060085117
-0.122002
0.063351214
-0.12785659
0.066094171
-0.13328958
0.068390002
-0.13842798
0.070321858
-0.1433892
0.07197116
-0.14827555
0.073411839
-0.15317245
-0.1581478
0.074707481
0.00089981896
-0.0064358517
0.0032333829
-0.018834562
0.0067291684
-0.03127288
0.011111183
-0.04359918
0.016092492
-0.055612719
0.02138463
-0.06710257
0.026713891
-0.077882256
0.031839119
-0.087814532
0.036567084
-0.096825643
0.040762264
-0.10490897
0.044349459
-0.11211907
0.047309325
-0.11855854
0.049668372
-0.12436105
0.05148577
-0.12967399
0.052839471
-0.13464329
0.053813755
-0.13940226
0.054489636
-0.14406508
0.054938735
-0.14872465
0.055220453
-0.15345416
0.055380878
-0.15830822
-0.00020237866
0.0002023787
-8.156564e-11
-0.00067774765
0.00047536908
-1.1207453e-10
-0.001342428
0.00066468042
-1.2390657e-10
-0.0021322974
0.00078986959
-1.2956045e-10
-0.0029957775
0.00086348017
-1.2916811e-10
-0.0038907458
0.00089496835
-1.1977751e-10
-0.0047823022
0.00089155647
-1.0730884e-10
-0.0056409
0.00085859791
-9.0831715e-11
-0.0064408755
0.00079997547
-7.533711e-11
-0.0071592964
0.00071842102
-5.9727923e-11
-0.0077750445
0.00061574808
-4.6788144e-11
-0.0082680793
0.00049303484
-3.5177504e-11
-0.0086188592
0.00035077985
-2.6155142e-11
-0.0088079075
0.00018904831
-1.8395628e-11
-0.0088155576
7.6501686e-06
-1.2635831e-11
-0.0086219768
-0.00019358078
-7.716513e-12
-0.0082074298
-0.00041454701
-4.1069608e-12
-0.0075518736
-0.00065555624
-1.2062721e-12
-0.0066345517
-0.0009173219
7.1763501e-13
-0.0011862404
-0.0054483113
2.195582e-12
-0.00018797482
0.00039035349
-0.00062500811
0.00091240234
-0.0012287553
0.0012684276
-0.0019351976
0.0014963119
-0.0026921433
0.0016204259
-0.003456289
0.001659114
-0.0041910727
0.0016263402
-0.0048648647
0.0015323899
-0.0054495298
0.0013846405
-0.005919292
0.0011881833
-0.0062498195
0.00094627557
-0.0064174825
0.00066069779
-0.0063987484
0.00033204578
-0.0061697031
-3.9997025e-05
-0.0057057254
-0.00045632749
-0.0049814073
-0.00091789889
-0.0039707695
-0.0014251849
-0.0026471822
-0.0019791435
-0.00098321541
-0.0025812887
-0.0032018044
0.0010323486
-0.00015892811
0.00054928158
-0.00051889221
0.0012723664
-0.0010007714
0.0017503067
-0.0015412613
0.0020368018
-0.0020873522
0.0021665167
-0.0025937377
0.0021654995
-0.0030208705
0.002053473
-0.0033332952
0.0018448145
-0.0034983024
0.0015496477
-0.003484853
0.0011747339
-0.0032626941
0.00072411666
-0.0028016392
0.00019964289
-0.0020709346
-0.00039865883
-0.0010387453
-0.0010721863
0.00032827401
-0.0018233469
0.002065256
-0.0026548809
0.0042090799
-0.0035690088
0.0067980657
-0.0045681294
0.0098719052
-0.0056551281
-0.0067797781
0.013449879
-0.00011756708
0.00066684864
-0.00036699886
0.0015217982
-0.00067351409
0.0020568219
-0.000974826
0.0023381137
-0.001216854
0.0024085447
-0.0013515932
0.0023002388
-0.0013354576
0.0020373373
-0.0011278243
0.0016371813
-0.00068983813
0.0011116615
1.6541268e-05
0.00046835444
0.0010293233
-0.00028866537
0.0023871334
-0.0011581672
0.0041297582
-0.0021412837
0.0062986272
-0.0032410553
0.0089373188
-0.0044620385
0.012092117
-0.005809679
0.015812386
-0.0072892775
0.020150269
-0.0089060123
0.025160477
-0.010665336
-0.012492681
0.03087338
-6.6907625e-05
0.00073375626
-0.00017916636
0.0016340569
-0.00026653327
0.0021441888
-0.00026769014
0.0023392705
-0.00012719163
0.0022680461
0.00020617148
0.0019668756
0.00078070087
0.0014628079
0.0016429601
0.00077492205
0.0028387443
-8.4122693e-05
0.004413866
-0.0011067673
0.0064147188
-0.0022895182
0.0088886935
-0.0036321419
0.011884504
-0.005137094
0.015452516
-0.0068090673
0.019645122
-0.0086546449
0.024517363
-0.010681919
0.0301278
-0.012899715
0.036539033
-0.015317246
0.04381846
-0.017944763
-0.020682631
0.05200841
-9.9844813e-06
0.00074374074
3.453561e-05
0.0015895368
0.00019989176
0.0019788326
0.00054676887
0.0019923934
0.0011322525
0.0016825625
0.0020109896
0.0010881385
0.0032361525
0.00023764496
0.0048603219
-0.00084924739
0.0069361446
-0.0021599454
0.0095167076
-0.0036873302
0.012655747
-0.0054285572
0.016407751
-0.0073841459
0.020827889
-0.0095572321
0.025971848
-0.011953027
0.031895738
-0.014578535
0.038656386
-0.017442567
0.046312526
-0.020555854
0.054926855
-0.023931575
0.06456987
-0.027587778
-0.031405717
0.075292956
5.0751565e-05
0.00069298918
0.00026565881
0.0013746295
0.00070825684
0.0015362346
0.001439035
0.0012616153
0.002516828
0.00060476944
0.0039995781
-0.00039461162
0.0059449314
-0.0017077083
0.0084106264
-0.0033149425
0.011454625
-0.0052039442
0.015135082
-0.0073677867
0.019510074
-0.0098035491
0.024637075
-0.012511148
0.030572222
-0.015492379
0.037369413
-0.018750218
0.045079375
-0.022288497
0.05374912
-0.026112313
0.063422759
-0.030229493
0.07414489
-0.034653706
0.085969547
-0.039412435
-0.044388655
0.098952485
0.00011379666
0.00057919252
0.00050850484
0.00097992136
0.0012459856
0.00079875377
0.0023867837
0.00012081721
0.0039912507
-0.00099969763
0.0061198908
-0.0025232517
0.0088333408
-0.0044211583
0.012192194
-0.0066737957
0.016256595
-0.009268345
0.021085493
-0.012196685
0.026735608
-0.015453663
0.033260098
-0.019035637
0.040706975
-0.022939256
0.0491173
-0.027160543
0.058523282
-0.031694478
0.068946654
-0.036535685
0.080398496
-0.041681335
0.092882347
-0.047137556
0.10640571
-0.052935796
-0.058995846
0.1210129
0.00017849626
0.00040069627
0.00076003167
0.00039838595
0.001805343
-0.00024655756
0.0033747211
-0.001448561
0.0055290074
-0.0031539839
0.0083293372
-0.0053235814
0.011836515
-0.0079283361
0.016110092
-0.010947373
0.021207087
-0.014365339
0.027180359
-0.018169958
0.034076687
-0.022349992
0.041934562
-0.026893512
0.050781762
-0.031786456
0.060632712
-0.037011493
0.071485636
-0.042547402
0.083319546
-0.048369595
0.096092035
-0.054453824
0.10974062
-0.06078614
0.12419621
-0.067391388
-0.074274811
0.13947518
0.00024512778
0.0010199515
0.0023833452
0.004393871
0.0071105639
0.010591926
0.01489434
0.020070153
0.026165427
0.03321744
0.041252091
0.050281338
0.060300841
0.071287863
0.083199275
0.095969057
0.10950357
0.12366397
0.13818351
0.1525878
-0.0035076741
-0.0019406372
4.6306662e-12
-0.0012858757
-0.0022217984
5.7375071e-12
0.0011947488
-0.0024806245
5.9537066e-12
0.0038773002
-0.0026825514
4.6080792e-12
0.0067349748
-0.0028576746
1.7933441e-12
0.0097504667
-0.0030154919
-2.7538927e-12
0.012904841
-0.0031543747
-8.0998558e-12
0.016180076
-0.0032752349
-1.4103893e-11
0.01956047
-0.0033803937
-2.0291705e-11
0.023031804
-0.0034713337
-2.6590946e-11
0.026580791
-0.0035489873
-3.2769772e-11
0.030195007
-0.0036142161
-3.8480902e-11
0.033862809
-0.0036678018
-4.3229134e-11
0.037573201
-0.0037103913
-4.642685e-11
0.04131573
-0.0037425294
-4.7477659e-11
0.045080426
-0.0037646956
-4.5695702e-11
0.048857747
-0.0037773212
-4.0461913e-11
0.05263855
-0.0037808029
-3.10683e-11
0.056414067
-0.0037755171
-1.7001755e-11
0.060175899
-0.0037618318
2.2281978e-12
0.063916013
-0.0037401147
2.6673415e-11
0.067626754
-0.0037107402
5.6168092e-11
0.071300846
-0.0036740928
8.9780847e-11
0.074931415
-0.0036305693
1.2613712e-10
0.078511995
-0.0035805793
1.6273507e-10
0.082036538
-0.0035245437
1.9648705e-10
0.08549943
-0.0034628926
2.2295479e-10
0.088895493
-0.0033960625
2.3732965e-10
0.092219985
-0.0033244925
2.3365709e-10
0.095468606
-0.003248621
2.0653148e-10
0.098637488
-0.003168882
1.5037964e-10
0.10172319
-0.0030857018
6.213822e-11
0.10472269
-0.0029994962
-5.9523171e-11
0.10763335
-0.0029106686
-2.1052465e-10
0.11045296
-0.0028196086
-3.8270157e-10
0.11317966
-0.0027266919
-5.597037e-10
0.11581194
-0.0026322813
-7.2010233e-10
0.11834867
-0.0025367291
-8.3437726e-10
0.12078905
-0.0024403845
-8.7140817e-10
0.12313265
-0.0023435942
-7.9845233e-10
0.12537939
-0.0022467445
-5.9220457e-10
0.12752958
-0.0021501869
-2.4355128e-10
0.12958419
-0.0020546115
2.3028451e-10
0.1315442
-0.0019600073
7.8261357e-10
0.13341369
-0.0018694965
1.3281208e-09
0.13519119
-0.0017774987
1.7540727e-09
0.13690115
-0.0017099612
1.9238282e-09
0.13849942
-0.0015982767
1.7375466e-09
0.14018687
-0.0016874435
1.0980798e-09
-0.0013317574
-3.4262472e-10
0.0028529733
-0.0037612619
0.0049501304
-0.0043189555
0.0072930013
-0.0048234954
0.0098191439
-0.005208694
0.012507497
-0.0055460277
0.015345735
-0.0058537303
0.018317118
-0.0061257573
0.021405238
-0.0063633553
0.024596078
-0.006571233
0.027876873
-0.0067521295
0.031235494
-0.0069076076
0.034660457
-0.0070391799
0.038140908
-0.0071482522
0.041666499
-0.007235982
0.045227312
-0.0073033425
0.048813814
-0.0073511979
0.052416826
-0.0073803336
0.056027504
-0.0073914807
0.059637328
-0.0073853407
0.063238104
-0.0073626078
0.066821973
-0.0073239836
0.07038142
-0.0072701879
0.073909293
-0.0072019657
0.077398814
-0.00712009
0.080843597
-0.0070253619
0.08423766
-0.0069186067
0.087575437
-0.0068006702
0.090851786
-0.0066724118
0.094061992
-0.0065346977
0.097201764
-0.0063883929
0.10026724
-0.0062343551
0.10325496
-0.0060734272
0.1061619
-0.005906432
0.1089854
-0.0057341684
0.1117232
-0.0055574083
0.1143734
-0.0053768969
0.11693448
-0.0051933546
0.11940523
-0.0050074815
0.12178482
-0.0048199728
0.12407274
-0.0046315184
0.12626889
-0.0044428898
0.12837349
-0.0042547883
0.13038747
-0.0040685917
0.13231174
-0.0038842818
0.13415032
-0.0037080708
0.13590172
-0.0035288974
0.13758993
-0.0033981791
0.13917187
-0.0031802098
0.14084316
-0.0033587397
-0.0026610606
0.015021225
-0.0053326083
0.016852336
-0.0061500664
0.018905885
-0.0068770441
0.021111943
-0.0074147523
0.023458877
-0.0078929614
0.025943033
-0.0083378865
0.028551794
-0.0087345179
0.031271678
-0.0090832401
0.034091587
-0.0093911416
0.037001289
-0.0096618319
0.039990665
-0.0098969833
0.043049854
-0.010098368
0.04616933
-0.010267729
0.04933984
-0.010406492
0.052552353
-0.010515855
0.055798058
-0.010596903
0.059068365
-0.010650641
0.062354913
-0.010678028
0.065649578
-0.010680006
0.068944495
-0.010657525
0.072232077
-0.010611566
0.075505037
-0.010543148
0.07875641
-0.010453338
0.081979573
-0.010343254
0.085168271
-0.010214059
0.088316624
-0.01006696
0.091419147
-0.009903194
0.094470761
-0.0097240251
0.097466789
-0.009530726
0.10040297
-0.0093245728
0.10327544
-0.0091068294
0.10608076
-0.0088787408
0.10881585
-0.0086415235
0.11147804
-0.0083963592
0.11406502
-0.0081443917
0.11657485
-0.0078867257
0.11900593
-0.0076244311
0.121357
-0.0073585495
0.12362714
-0.0070901163
0.12581578
-0.0068201614
0.12792273
-0.0065498383
0.12994814
-0.0062801975
0.13189285
-0.0060132982
0.1337577
-0.0057491307
0.13554654
-0.0054969138
0.13725799
-0.0052403509
0.13891508
-0.0050552718
0.14047704
-0.0047421696
0.1421289
-0.005010599
-0.0039986017
0.032056681
-0.0065159094
0.033471889
-0.0075652742
0.035077404
-0.0084825593
0.03680025
-0.0091375985
0.038641113
-0.0097338242
0.04060629
-0.010303063
0.042688609
-0.010816837
0.044878547
-0.011273179
0.047168529
-0.011681123
0.049551326
-0.012044629
0.05201923
-0.012364888
0.054564286
-0.012643424
0.057178483
-0.012881925
0.059853777
-0.013081786
0.062582108
-0.013244186
0.06535543
-0.013370225
0.068165763
-0.013460974
0.071005229
-0.013517494
0.073866096
-0.013540873
0.076740812
-0.013532241
0.079622044
-0.013492798
0.082502713
-0.013423817
0.085376024
-0.013326649
0.088235495
-0.013202725
0.091074982
-0.013053546
0.093888697
-0.012880675
0.096671228
-0.012685724
0.099417543
-0.012470341
0.10212301
-0.012236189
0.10478337
-0.011984938
0.10739479
-0.011718246
0.10995379
-0.011437745
0.1124573
-0.011145033
0.11490261
-0.010841663
0.11728735
-0.01052914
0.11960955
-0.010208919
0.12186753
-0.0098824125
0.12405998
-0.0095509976
0.12618591
-0.009216045
0.12824467
-0.0088789223
0.13023599
-0.0085411621
0.13215996
-0.0082041653
0.13401732
-0.0078706639
0.13580887
-0.0075406811
0.13753828
-0.0072263194
0.13920434
-0.0069064137
0.14082871
-0.0066796431
0.1423741
-0.0062875522
0.14401025
-0.0066467527
-0.0053602752
0.052648712
-0.0071562115
0.053489307
-0.0084058697
0.054483431
-0.0094766831
0.055565396
-0.010219563
0.056750018
-0.010918446
0.058051591
-0.011604637
0.059468627
-0.012233873
0.060996258
-0.012800809
0.062630272
-0.013315138
0.064366073
-0.01378043
0.06619814
-0.014196954
0.068120202
-0.014565487
0.070125497
-0.01488722
0.072206921
-0.015163211
0.074357129
-0.015394393
0.076568606
-0.015581703
0.078833762
-0.015726129
0.081145001
-0.015828734
0.083494796
-0.015890668
0.085875744
-0.015913189
0.088280618
-0.015897672
0.090702418
-0.015845616
0.093134403
-0.015758634
0.095570131
-0.015638454
0.09800349
-0.015486905
0.10042871
-0.015305896
0.1028404
-0.015097408
0.10523352
-0.014863463
0.10760344
-0.014606115
0.10994592
-0.014327419
0.1122571
-0.014029419
0.11453348
-0.013714131
0.11677198
-0.01338353
0.11896985
-0.013039534
0.12112472
-0.012684005
0.12323455
-0.012318747
0.12529764
-0.01194551
0.12731265
-0.011566005
0.12927854
-0.011181937
0.13119463
-0.010795012
0.13306062
-0.010407143
0.13487653
-0.010020085
0.1366431
-0.0096372324
0.1383611
-0.0092586746
0.14003402
-0.0088992424
0.14166097
-0.0085333659
0.14326193
-0.0082806004
0.14480402
-0.0078296446
0.1464381
-0.0082808327
-0.0067693209
0.075221947
-0.0070852022
0.075326913
-0.0085108363
0.075551287
-0.0097010568
0.075851584
-0.01051986
0.076255839
-0.011322701
0.076780904
-0.012129702
0.077429817
-0.012882785
0.078202505
-0.013573498
0.079097279
-0.014209911
0.080110989
-0.01479414
0.081239393
-0.015325358
0.082477194
-0.015803288
0.083818208
-0.016228234
0.085255656
-0.016600658
0.08678236
-0.016921098
0.088390868
-0.017190211
0.090073563
-0.017408824
0.091822765
-0.017577936
0.093630831
-0.017698734
0.095490223
-0.017772581
0.097393576
-0.017801025
0.099333746
-0.017785787
0.10130387
-0.017728754
0.10329737
-0.017631961
0.10530805
-0.017497577
0.10733002
-0.017327873
0.10935782
-0.017125209
0.11138636
-0.016892
0.11341094
-0.016630694
0.11542727
-0.016343749
0.11743146
-0.016033605
0.11941999
-0.01570267
0.12138976
-0.015353299
0.12333802
-0.014987788
0.12526237
-0.01460836
0.1271608
-0.014217173
0.12903161
-0.013816322
0.13087346
-0.013407855
0.13268534
-0.01299382
0.1344666
-0.012576267
0.13621694
-0.012157492
0.13793647
-0.011739614
0.13962593
-0.011326683
0.14128615
-0.010918895
0.14292053
-0.010533629
0.1445286
-0.010141439
0.14612849
-0.0098804893
0.14769248
-0.0093936358
0.14935007
-0.0099384234
-0.0082578529
0.098025496
-0.0061582136
0.097258229
-0.0077435692
0.096581945
-0.0090247722
0.095997515
-0.0099354295
0.095541068
-0.010866254
0.095223836
-0.01181247
0.095051186
-0.012710136
0.095027122
-0.013549434
0.095151176
-0.014333965
0.095420082
-0.015063047
0.095829482
-0.015734757
0.096373964
-0.016347771
0.097047045
-0.016901315
0.097841492
-0.017395105
0.098749621
-0.017829226
0.09976346
-0.018204051
0.10087487
-0.018520237
0.10207568
-0.018778741
0.10335775
-0.018980801
0.10471309
-0.019127922
0.10613392
-0.019221855
0.10761272
-0.019264586
0.10914227
-0.019258313
0.11071573
-0.019205421
0.11232661
-0.019108453
0.11396882
-0.018970088
0.11563671
-0.018793095
0.11732503
-0.01858032
0.11902898
-0.018334641
0.12074417
-0.018058941
0.12246666
-0.017756092
0.1241929
-0.017428914
0.12591977
-0.017080171
0.12764454
-0.016712553
0.12936485
-0.016328668
0.13107871
-0.015931041
0.13278452
-0.015522131
0.13448101
-0.015104339
0.13616726
-0.014680071
0.13784272
-0.014251731
0.13950724
-0.013822015
0.14116105
-0.013393416
0.142805
-0.01297064
0.14444013
-0.012554024
0.14606983
-0.012163321
0.14769415
-0.01176576
0.14932933
-0.011515675
0.1509533
-0.011017602
0.15267299
-0.011658114
-0.0098676308
0.11918926
-0.0043345767
0.11749667
-0.0060509729
0.11585716
-0.0073852625
0.11435464
-0.0084329097
0.11302534
-0.0095369627
0.11186679
-0.010653917
0.11088444
-0.011727788
0.11008458
-0.012749572
0.10946662
-0.013716001
0.10902595
-0.014622385
0.10875678
-0.015465587
0.10865244
-0.01624343
0.10870534
-0.016954208
0.10890716
-0.017596923
0.10924917
-0.018171243
0.10972245
-0.018677325
0.11031795
-0.019115741
0.11102668
-0.019487469
0.11183975
-0.019793869
0.11274848
-0.02003665
0.11374446
-0.020217837
0.11481961
-0.020339741
0.11596623
-0.020404935
0.11717703
-0.020416212
0.11844513
-0.020376555
0.11976414
-0.020289096
0.12112812
-0.020157082
0.12253164
-0.019983834
0.1239697
-0.019772708
0.12543783
-0.019527069
0.12693199
-0.019250251
0.12844861
-0.018945537
0.12998458
-0.018616137
0.13153719
-0.018265168
0.13310418
-0.017895654
0.13468366
-0.017510524
0.13627415
-0.017112621
0.13787455
-0.016704733
0.13948411
-0.016289637
0.1411025
-0.015870123
0.14272979
-0.015449301
0.14436643
-0.015030061
0.14601356
-0.014617764
0.14767247
-0.014212936
0.14934667
-0.01383752
0.15103689
-0.013455978
0.15275752
-0.013236307
0.15449236
-0.012752447
0.15632568
-0.013491431
-0.011650002
0.13689621
-0.0017556129
0.13437826
-0.0035330193
0.1318197
-0.0048267022
0.12946264
-0.0060758529
0.12733429
-0.0074086166
0.12541603
-0.008735656
0.12371069
-0.010022442
0.12222335
-0.01126223
0.12095246
-0.012445113
0.11989225
-0.013562179
0.11903522
-0.014608557
0.11837302
-0.015581228
0.11789665
-0.016477841
0.11759659
-0.017296861
0.11746297
-0.018037621
0.11748577
-0.018700131
0.11765499
-0.019284957
0.1179607
-0.019793176
0.11839317
-0.020226337
0.11894294
-0.020586422
0.11960089
-0.020875792
0.12035831
-0.021097156
0.1212069
-0.021253526
0.12213886
-0.021348171
0.12314688
-0.021384578
0.12422419
-0.021366406
0.12536454
-0.021297435
0.12656224
-0.021181527
0.12781211
-0.021022582
0.12910954
-0.020824499
0.13045043
-0.020591138
0.13183119
-0.020326294
0.13324872
-0.020033671
0.13470042
-0.019716865
0.13618412
-0.019379358
0.13769812
-0.019024521
0.13924113
-0.018655628
0.14081227
-0.018275875
0.14241109
-0.017888458
0.14403754
-0.017496572
0.14569201
-0.017103773
0.14737532
-0.016713372
0.14908895
-0.016331396
0.15083462
-0.015958602
0.15261606
-0.015618957
0.15443477
-0.015274688
0.15630342
-0.015104958
0.15821181
-0.014660838
0.16022195
-0.015501569
-0.013665006
0.1500523
0.00077988374
0.14676337
-0.00024408081
0.14346604
-0.0015293721
0.14041827
-0.0030280834
0.13762338
-0.0046137332
0.13507513
-0.006187403
0.13277534
-0.0077226553
0.13072411
-0.0092109934
0.12891898
-0.010639988
0.12735477
-0.011997964
0.12602364
-0.013277427
0.12491619
-0.014473778
0.12402224
-0.015583893
0.12333113
-0.016605756
0.12283189
-0.017538376
0.12251339
-0.018381636
0.12236458
-0.019136138
0.12237452
-0.01980312
0.12253257
-0.020384387
0.1228284
-0.020882255
0.12325211
-0.021299498
0.12379425
-0.021639292
0.12444588
-0.021905161
0.12519864
-0.022100931
0.12604473
-0.022230668
0.12697695
-0.02229863
0.12798873
-0.02230921
0.12907409
-0.022266886
0.13022768
-0.022176173
0.13144476
-0.022041575
0.13272116
-0.021867545
0.13405332
-0.021658453
0.13543821
-0.021418558
0.13687334
-0.021151993
0.13835673
-0.020862751
0.1398869
-0.020554693
0.14146284
-0.020231566
0.14308399
-0.019897024
0.14475024
-0.019554711
0.14646194
-0.019208267
0.14821989
-0.018861726
0.15002536
-0.01851884
0.15188029
-0.018186333
0.15378689
-0.017865197
0.15574927
-0.017581342
0.15776964
-0.017295055
0.15985954
-0.017194854
0.1620132
-0.016814503
0.16427542
-0.01776379
-0.015977607
0.1889091
0.0053819722
-0.19351119
0.18509907
0.003565944
0.18170705
0.0018626489
0.17856194
0.00011702828
0.1756264
-0.0016781887
0.17287539
-0.003436393
0.17029069
-0.0051379555
0.1678633
-0.0067836105
0.16558936
-0.0083660412
0.16346669
-0.0098752979
0.16149345
-0.011304182
0.15966751
-0.012647843
0.15798624
-0.013902625
0.15644635
-0.015065865
0.15504392
-0.016135941
0.15377447
-0.017112188
0.15263308
-0.017994751
0.15161446
-0.018784499
0.15071303
-0.019482954
0.14992301
-0.020092235
0.1492385
-0.020614993
0.14865356
-0.02105435
0.14816224
-0.02141384
0.14775866
-0.02169735
0.14743705
-0.021909058
0.14719179
-0.022053373
0.14701746
-0.022134875
0.14690883
-0.022158256
0.14686092
-0.022128268
0.14686902
-0.02204967
0.14692866
-0.021927184
0.14703566
-0.021765455
0.14718612
-0.021569025
0.14737644
-0.021342311
0.14760328
-0.021089593
0.14786361
-0.020815017
0.14815466
-0.020522614
0.14847396
-0.020216328
0.14881934
-0.019900093
0.14918892
-0.019577844
0.14958114
-0.019253945
0.14999476
-0.018932463
0.15042902
-0.018620596
0.1508834
-0.01831958
0.15135853
-0.018056465
0.15185424
-0.017790771
0.15237504
-0.017715653
0.15291661
-0.017356068
0.15350196
-0.018349145
-0.016570786
0.21685798
0.0087802905
-0.2202563
0.2133841
0.007039818
0.21017131
0.0050754478
0.20706601
0.0032223275
0.20401942
0.0013683928
0.20106252
-0.00047948746
0.19821217
-0.0022876091
0.1954729
-0.004044336
0.1928506
-0.0057437391
0.1903521
-0.0073768
0.1879826
-0.0089346879
0.18574551
-0.01041075
0.18364281
-0.011799929
0.18167521
-0.013098264
0.17984217
-0.0143029
0.17814207
-0.015412082
0.17657235
-0.016425034
0.17512971
-0.017341855
0.17381018
-0.018163433
0.17260933
-0.018891382
0.1715223
-0.019527961
0.17054396
-0.020076009
0.16966899
-0.020538867
0.16889195
-0.020920313
0.16820738
-0.021224488
0.16760984
-0.021455829
0.16709396
-0.021619
0.16665453
-0.021718821
0.16628647
-0.021760214
0.16598494
-0.021748139
0.1657453
-0.021687543
0.16556317
-0.021583321
0.16543442
-0.021440277
0.16535521
-0.021263099
0.16532196
-0.021056349
0.16533141
-0.020824459
0.16538054
-0.02057175
0.16546667
-0.020302458
0.1655874
-0.020020822
0.16574065
-0.019731089
0.16592465
-0.019437952
0.16613803
-0.019145839
0.16637977
-0.018862337
0.16664938
-0.018589192
0.16694672
-0.018353802
0.16727301
-0.018117066
0.1676275
-0.018070136
0.16801846
-0.017747036
0.16842792
-0.018758596
-0.017045181
0.24376688
0.011504232
-0.24649082
0.24091645
0.009890243
0.23806326
0.0079286452
0.23521631
0.006069276
0.23233852
0.0042461814
0.22945071
0.0024083178
0.22658411
0.00057899272
0.22375801
-0.0012182344
0.22098833
-0.0029740553
0.218291
-0.0046794701
0.21567988
-0.0063235705
0.21316597
-0.007896844
0.21075789
-0.0093918459
0.20846219
-0.010802563
0.2062835
-0.012124213
0.20422471
-0.01335329
0.20228717
-0.014487493
0.20047092
-0.015525605
0.19877488
-0.01646739
0.19719701
-0.017313514
0.1957345
-0.018065455
0.19438391
-0.018725415
0.19314128
-0.019296237
0.19200228
-0.019781319
0.19096233
-0.020184533
0.19001664
-0.020510141
0.18916036
-0.020762714
0.18838859
-0.02094706
0.18769652
-0.021068145
0.18707942
-0.021131032
0.18653269
-0.021140815
0.18605194
-0.021102572
0.18563299
-0.021021322
0.18527188
-0.020901991
0.18496493
-0.020749398
0.18470871
-0.020568246
0.1845001
-0.02036314
0.18433626
-0.02013861
0.18421463
-0.0198992
0.18413302
-0.019649478
0.18408954
-0.019394468
0.18408269
-0.019138994
0.1841113
-0.018890949
0.18417496
-0.018652851
0.18427277
-0.018451608
0.18440744
-0.018251739
0.18457259
-0.018235285
0.18479011
-0.017964551
0.18499611
-0.018964599
-0.017378333
0.26927462
0.013537174
-0.27130756
0.26710659
0.012058276
0.26476484
0.010270394
0.26232562
0.0085084893
0.25979689
0.0067749183
0.25718881
0.0050163989
0.2545275
0.0032402957
0.25183715
0.0014721178
0.24913775
-0.00027465159
0.2464491
-0.00199082
0.24379049
-0.003664964
0.24117906
-0.0052854167
0.23862954
-0.0068423246
0.23615442
-0.0083274369
0.23376398
-0.0097337778
0.2314664
-0.011055706
0.22926785
-0.012288944
0.22717273
-0.013430486
0.22518384
-0.014478503
0.22330258
-0.015432254
0.22152912
-0.016291995
0.2198626
-0.017058889
0.21830126
-0.017734902
0.21684266
-0.018322713
0.21548374
-0.018825614
0.21422102
-0.019247419
0.21305067
-0.019592369
0.21196865
-0.019865043
0.21097078
-0.020070276
0.21005283
-0.020213076
0.20921057
-0.020298557
0.20843987
-0.020331876
0.20773673
-0.020318179
0.2070973
-0.020262565
0.20651796
-0.020170058
0.20599532
-0.020045597
0.20552622
-0.019894043
0.20510782
-0.019720207
0.20473754
-0.019528927
0.20441316
-0.019325096
0.20413275
-0.019114058
0.20389482
-0.018901061
0.20369809
-0.018694225
0.20354228
-0.01849704
0.20342591
-0.018335239
0.2033529
-0.018178727
0.20331207
-0.018194452
0.20333664
-0.017989126
0.20332143
-0.018949383
-0.017548055
0.29298536
0.014868306
-0.29431649
0.29150613
0.013537509
0.28978365
0.011992877
0.28788502
0.010407113
0.28584512
0.0088148179
0.28367476
0.0071867589
0.28139235
0.0055227047
0.27902114
0.0038433329
0.27658242
0.0021640668
0.27409636
0.00049523982
0.27158316
-0.0011517636
0.26906254
-0.0027648002
0.26655283
-0.0043326156
0.26407062
-0.0058452272
0.26163065
-0.0072938068
0.25924569
-0.0086707387
0.25692648
-0.0099697407
0.25468186
-0.011185866
0.2525188
-0.012315446
0.25044259
-0.013356036
0.24845693
-0.014306338
0.24656416
-0.015166121
0.24476539
-0.015936126
0.24306064
-0.016617969
0.24144907
-0.017214037
0.23992904
-0.01772739
0.23849832
-0.018161657
0.23715422
-0.018520937
0.23589365
-0.018809703
0.23471328
-0.019032711
0.23360964
-0.01919492
0.23257919
-0.019301417
0.23161836
-0.019357355
0.2307237
-0.0193679
0.22989184
-0.019338202
0.22911961
-0.01927337
0.22840405
-0.019178475
0.22774241
-0.019058572
0.22713225
-0.018918771
0.22657143
-0.018764272
0.2260581
-0.018600728
0.22559086
-0.018433817
0.22516846
-0.018271829
0.22479076
-0.018119339
0.22445593
-0.018000404
0.22416871
-0.017891514
0.22391429
-0.017940028
0.22373421