/*--------------------------------*- C++ -*----------------------------------*\
  =========                 |
  \\      /  F ield         | OpenFOAM: The Open Source CFD Toolbox
   \\    /   O peration     | Website:  https://openfoam.org
    \\  /    A nd           | Version:  6
     \\/     M anipulation  |
\*---------------------------------------------------------------------------*/
FoamFile
{
    version     2.0;
    format      ascii;
    class       volVectorField;
    location    "152";
    object      UMean;
}
// * * * * * * * * * * * * * * * * * * * * * * * * * * * * * * * * * * * * * //

dimensions      [0 1 -1 0 0 0 0];

internalField   nonuniform List<vector> 
9200
(
(0.0019466392 0.00072588498 -6.1596059e-20)
(0.016692391 -0.0042455181 4.9200935e-20)
(0.043629876 -0.0093324926 -4.0396041e-20)
(0.080027929 -0.01433559 -6.4263246e-20)
(0.12396704 -0.01905071 1.9909661e-20)
(0.17416878 -0.023046355 3.4933691e-20)
(0.22951681 -0.026038398 -1.3057246e-20)
(0.28897956 -0.027888567 9.8822913e-21)
(0.35159341 -0.028545246 1.8295398e-20)
(0.41643155 -0.028019938 1.6172076e-21)
(0.48258106 -0.026376005 -2.3447042e-20)
(0.54913488 -0.023717601 2.2513502e-20)
(0.61519576 -0.020178631 -4.3906045e-20)
(0.67988986 -0.01591156 -2.3116503e-20)
(0.74238826 -0.011075592 6.4600447e-21)
(0.80193357 -0.0058269634 -2.7586326e-20)
(0.85788438 -0.00029614974 2.7734893e-20)
(0.90983607 0.0055572066 2.465772e-20)
(0.95744045 0.011860561 -2.457006e-22)
(0.99808612 0.015316702 -1.5645578e-21)
(0.0064250683 -0.0021274463 -1.77438e-20)
(0.030687141 -0.011352592 4.2208524e-20)
(0.068054254 -0.018472363 2.4431919e-20)
(0.11538442 -0.023920043 -1.2244326e-19)
(0.17045336 -0.027902643 -1.3379079e-20)
(0.23172201 -0.030225761 7.8168225e-20)
(0.29780499 -0.03081046 -3.7827144e-20)
(0.36739069 -0.029708731 -9.0366699e-21)
(0.4392313 -0.027042337 3.6993217e-20)
(0.5121206 -0.022983521 -4.6811421e-20)
(0.58488394 -0.017747197 -3.3078355e-20)
(0.65638647 -0.011580416 7.8573338e-20)
(0.72555428 -0.0047504266 4.1710244e-20)
(0.79140363 0.0024670807 -7.421093e-20)
(0.85307408 0.009797975 1.5964717e-20)
(0.90985977 0.016974357 -4.0109171e-20)
(0.96124756 0.023748217 -1.5248546e-20)
(1.0070124 0.029963558 7.7396475e-20)
(1.047086 0.035219986 3.338866e-20)
(1.0797666 0.036449828 -8.5879801e-20)
(0.012317593 -0.0048767753 3.7777834e-20)
(0.048419019 -0.017874435 2.2576429e-21)
(0.09798472 -0.026264963 2.2840788e-20)
(0.15751733 -0.031235724 1.0325131e-21)
(0.22449915 -0.033489644 -4.2343918e-20)
(0.29710689 -0.033133811 1.995984e-20)
(0.37365385 -0.030354919 1.3954272e-20)
(0.45251931 -0.025452818 -5.3735326e-20)
(0.5321557 -0.018775174 6.1512694e-20)
(0.61108602 -0.010699884 1.5742701e-20)
(0.68791556 -0.0016274286 -5.9026061e-20)
(0.76136118 0.0080328402 -1.998864e-20)
(0.83028934 0.017879227 9.4336304e-21)
(0.89375496 0.027533812 2.5458347e-20)
(0.95103433 0.036656081 -1.2297836e-20)
(1.0016455 0.044951464 3.0169895e-20)
(1.0453576 0.052184774 -2.1967709e-20)
(1.0822178 0.058226721 -7.5322493e-20)
(1.1124258 0.062819671 -2.4580818e-20)
(1.1351994 0.064116299 5.145488e-20)
(0.019715828 -0.0072711892 2.4998038e-20)
(0.069992659 -0.023112155 5.2882269e-20)
(0.13338665 -0.031668494 2.0751755e-20)
(0.20612246 -0.035004224 1.4004567e-20)
(0.28540909 -0.03440428 1.8489138e-20)
(0.369125 -0.030346255 -5.0620687e-20)
(0.45526935 -0.023345932 -2.7374066e-20)
(0.54191707 -0.014007106 0)
(0.62725494 -0.0029478068 1.6050385e-20)
(0.70960797 0.0092197207 -6.9896928e-21)
(0.78747696 0.021900265 -1.0546213e-19)
(0.85958615 0.034535117 -1.6759084e-20)
(0.92492886 0.046623723 7.0388713e-20)
(0.98280128 0.057742434 4.7420867e-22)
(1.0328179 0.067557835 -1.689907e-21)
(1.0749046 0.075832698 2.3522672e-20)
(1.1092714 0.082431702 -5.4449306e-21)
(1.1363848 0.087349222 -6.5277946e-20)
(1.1568485 0.09056838 -4.9013718e-20)
(1.170681 0.091146461 7.2242557e-20)
(0.028640693 -0.009027201 -3.8099728e-21)
(0.095290299 -0.02631383 -4.6935465e-21)
(0.17384318 -0.033610591 5.859721e-20)
(0.2603563 -0.03396813 1.9722657e-20)
(0.35180786 -0.029334413 -3.4121132e-20)
(0.44579113 -0.020626135 1.2505579e-20)
(0.54001937 -0.0087464891 2.8134906e-21)
(0.6323242 0.0053540597 3.628391e-20)
(0.72072957 0.020765478 6.0787507e-21)
(0.8035097 0.036644603 -1.4531575e-20)
(0.8792467 0.052231727 6.5247805e-20)
(0.94688274 0.066874418 -6.2005646e-20)
(1.0057535 0.080049448 -1.4163266e-19)
(1.0555947 0.091376425 -5.9636145e-21)
(1.0965193 0.10062105 8.8545123e-20)
(1.1289684 0.10768751 0)
(1.153641 0.11260657 1.092733e-20)
(1.1714234 0.11553799 -1.6246932e-20)
(1.1832733 0.11666798 -9.2948164e-21)
(1.1897737 0.11560451 2.1811347e-20)
(0.039022642 -0.0098395295 -5.0231996e-21)
(0.12394238 -0.026718055 4.4815684e-21)
(0.21854843 -0.031073834 -9.0651842e-21)
(0.31887941 -0.027023556 2.9243523e-20)
(0.42176137 -0.017241783 -3.1119359e-20)
(0.52456116 -0.0031404487 -1.7903768e-20)
(0.62479382 0.01395173 3.8481483e-20)
(0.72017835 0.032725748 4.7711813e-21)
(0.80875016 0.051998341 -2.6784998e-20)
(0.88894224 0.070745619 7.4578889e-20)
(0.95964525 0.08812157 1.9291924e-22)
(1.0202404 0.10347844 -8.5976966e-20)
(1.0705956 0.11637793 0)
(1.1110232 0.12658732 4.1855566e-20)
(1.1422052 0.13406086 5.7744356e-21)
(1.1650967 0.13890909 -8.1636288e-20)
(1.1808205 0.14136421 -2.0643742e-20)
(1.1905703 0.14175764 -1.3010768e-20)
(1.1955062 0.14043153 -1.5438149e-20)
(1.1964848 0.13732203 4.2258246e-20)
(0.050688959 -0.0094022134 -1.7317854e-20)
(0.15531253 -0.023613195 -3.4506168e-21)
(0.26631851 -0.023185657 3.0788859e-20)
(0.37991781 -0.013330854 3.77231e-20)
(0.49290948 0.002521309 -2.0697064e-20)
(0.60255112 0.022437497 -7.303575e-20)
(0.70631446 0.04466436 -3.0039935e-20)
(0.80200347 0.067570969 8.3633401e-20)
(0.88789392 0.089772968 9.5255927e-21)
(0.96281721 0.11016781 -2.6202034e-20)
(1.0261964 0.12794458 1.421949e-20)
(1.0780327 0.14258679 -4.6227068e-21)
(1.1188428 0.15385778 0)
(1.1495563 0.16176637 2.8691338e-20)
(1.1713891 0.16651765 -8.3390118e-20)
(1.1857115 0.16845576 -3.3063954e-20)
(1.1939258 0.16800885 8.4783227e-20)
(1.1973698 0.16565 -4.8323858e-21)
(1.1972386 0.16181915 3.6174181e-21)
(1.1944366 0.15663611 2.8500158e-20)
(0.063358063 -0.0074365131 -3.2614382e-20)
(0.1885043 -0.016409193 -8.4014256e-20)
(0.31563759 -0.0093155434 1.4302135e-21)
(0.44136745 0.0075828621 7.3260481e-20)
(0.56264028 0.030126213 6.5184906e-20)
(0.67678268 0.055882116 -7.4132429e-20)
(0.78143897 0.082728849 3.6887145e-22)
(0.87474287 0.1088093 9.0801329e-20)
(0.95546051 0.13266529 5.1520238e-20)
(1.023048 0.15326092 -5.739718e-20)
(1.0776349 0.16996675 -9.7419847e-20)
(1.1199431 0.18252739 -3.3260663e-21)
(1.1511564 0.19100688 4.4264442e-20)
(1.1727616 0.19571551 -6.842293e-21)
(1.1863875 0.19712857 -1.327054e-20)
(1.1936597 0.19580769 2.0238388e-20)
(1.1960889 0.19233506 4.570398e-20)
(1.1949982 0.18727015 -4.542485e-20)
(1.1914849 0.18108902 -1.0635099e-19)
(1.1863613 0.17400201 2.5808174e-20)
(0.076610058 -0.0037215525 -3.5974462e-20)
(0.22232297 -0.0047131018 -1.7599409e-19)
(0.36463394 0.010843323 8.6165428e-20)
(0.50079868 0.035764284 9.6682665e-20)
(0.62813179 0.065251653 6.0163602e-20)
(0.7442611 0.096457677 9.0528755e-21)
(0.84725932 0.12701231 -1.1112878e-19)
(0.93584689 0.15498694 0)
(1.0095071 0.17902162 -7.2697102e-20)
(1.0684882 0.19831619 -1.6070138e-20)
(1.113714 0.21256881 5.7390626e-20)
(1.1466277 0.22189265 1.1444463e-20)
(1.1690021 0.22671293 -4.7594312e-20)
(1.1827445 0.22765532 -5.1019442e-20)
(1.1897276 0.22544049 2.5437186e-20)
(1.1916602 0.22079632 4.6811254e-20)
(1.1900084 0.21439535 -5.7862274e-20)
(1.1859634 0.20682028 -1.1147321e-19)
(1.1804474 0.19852956 -3.0556198e-21)
(1.1741154 0.18976887 2.7932895e-20)
(0.089870222 0.0018908624 -4.0691437e-21)
(0.2552807 0.011657858 9.0239533e-20)
(0.41111855 0.0372797 -1.4149445e-20)
(0.55554413 0.070860104 -8.8715379e-20)
(0.68649041 0.10713143 4.7160147e-20)
(0.80214501 0.14298849 5.048547e-20)
(0.90126625 0.17600196 5.8081926e-21)
(0.98338568 0.20437911 -1.0403235e-19)
(1.0488648 0.22705784 -2.6239314e-21)
(1.098821 0.2436424 5.2873966e-20)
(1.1349592 0.25427903 6.2441679e-21)
(1.1593519 0.25951375 -2.0663633e-20)
(1.1742119 0.26014337 -7.8788907e-20)
(1.1816918 0.25707624 -6.3974521e-21)
(1.1837355 0.25121825 4.5100829e-20)
(1.1819882 0.24339241 3.8286446e-20)
(1.1777637 0.23429313 2.0305849e-20)
(1.1720579 0.22447008 -5.5204626e-20)
(1.165593 0.21432636 1.2879264e-20)
(1.1588543 0.20411467 8.5045113e-20)
(-0.0013380496 0.0014610484 -7.6199156e-22)
(-0.0047684832 0.0031936246 1.819789e-21)
(-0.010804955 0.0040867687 2.1088841e-21)
(-0.017639533 0.0044179674 -6.9853642e-22)
(-0.024354809 0.0043609451 -2.6288101e-21)
(-0.030522933 0.004033659 2.7594991e-21)
(-0.035869934 0.0035219933 -8.8167914e-21)
(-0.040221917 0.0028878549 -7.5976513e-21)
(-0.043485981 0.0021751657 1.3520727e-20)
(-0.045623373 0.0014148373 -1.1572381e-20)
(-0.046629165 0.00062837343 -2.0491421e-22)
(-0.046519426 -0.00016952442 4.3034249e-21)
(-0.045322704 -0.0009689882 -6.9163637e-22)
(-0.043074212 -0.0017634287 2.5994405e-20)
(-0.039812209 -0.0025481391 2.6339535e-22)
(-0.035577502 -0.0033188116 -4.6052965e-20)
(-0.030415899 -0.0040709014 8.5834255e-21)
(-0.024369937 -0.0048023664 2.6499261e-20)
(-0.017450939 -0.005511742 -4.8513253e-20)
(-0.0097229397 -0.0061494712 -3.0545535e-20)
(-0.0016967402 0.0042513502 -5.7953345e-21)
(-0.0053927364 0.009269161 9.3714197e-21)
(-0.011169879 0.011839579 -1.0608995e-20)
(-0.017392672 0.012768873 6.2374908e-21)
(-0.023244744 0.01256396 7.3387023e-21)
(-0.028350328 0.011570903 9.823379e-22)
(-0.032471836 0.010041798 -2.9124681e-20)
(-0.035461744 0.0081582885 -2.4091444e-21)
(-0.037244943 0.0060492461 2.4144815e-20)
(-0.037794237 0.0038053546 -5.9566795e-21)
(-0.037111939 0.0014896647 -2.5405383e-20)
(-0.03521832 -0.00085475691 5.6456822e-21)
(-0.03214397 -0.0031990707 2.5579856e-20)
(-0.02792447 -0.0055241028 1.1693234e-20)
(-0.022596625 -0.0078162433 2.4854597e-20)
(-0.016198955 -0.010063274 -2.2149044e-20)
(-0.0087816129 -0.012252448 -2.4039711e-20)
(-0.00039818266 -0.014377217 2.3781773e-20)
(0.0090127188 -0.01642286 2.9400612e-20)
(0.01964404 -0.018219509 1.7013044e-20)
(-0.0023431318 0.0066503669 -4.7094151e-21)
(-0.0064727975 0.014427656 -4.5697922e-21)
(-0.011675032 0.018368749 -3.149973e-23)
(-0.016647049 0.019726787 -5.3734643e-22)
(-0.020766079 0.019295848 7.8478594e-21)
(-0.023756744 0.017624644 1.2301973e-20)
(-0.025452102 0.015113777 -4.6415538e-21)
(-0.025755924 0.012052071 -2.2239799e-20)
(-0.024627956 0.008644754 7.716539e-21)
(-0.022064069 0.005036473 1.5017268e-20)
(-0.018081579 0.0013279043 6.964978e-21)
(-0.012710226 -0.0024121791 2.050919e-20)
(-0.0059862237 -0.0061378891 1.9623851e-21)
(0.0020520236 -0.0098191397 -3.7829078e-20)
(0.01136769 -0.013434944 1.6738807e-21)
(0.021923964 -0.016966875 -2.3992358e-20)
(0.033661073 -0.020397678 -2.7586495e-20)
(0.0465006 -0.023718725 5.1040838e-20)
(0.060624519 -0.02687655 2.8275887e-20)
(0.076726153 -0.029503566 6.1116756e-22)
(-0.0031523381 0.0084436632 -5.9039111e-21)
(-0.0077222263 0.018161399 -1.2201218e-20)
(-0.011960118 0.022993774 4.5268456e-21)
(-0.015018067 0.02451726 4.8723673e-21)
(-0.016540238 0.023742242 2.1539468e-21)
(-0.016391962 0.021380364 9.1577824e-21)
(-0.01450677 0.017952895 1.1260132e-20)
(-0.010862451 0.013835939 -1.7017725e-21)
(-0.0054702912 0.0092973961 -1.3393974e-20)
(0.0016382978 0.004526575 -3.3545768e-20)
(0.010421265 -0.00034452263 1.9921884e-22)
(0.020830934 -0.0052256379 4.6069478e-20)
(0.032818248 -0.01005696 -2.0304732e-20)
(0.04633431 -0.014799641 -1.3746936e-20)
(0.061334441 -0.01942772 2.080419e-22)
(0.077776497 -0.023920491 3.5961457e-20)
(0.095584744 -0.028263558 -1.7055774e-20)
(0.11463752 -0.032456079 -5.8378123e-20)
(0.13524184 -0.036381664 4.95112e-20)
(0.15880139 -0.039355368 3.5978813e-20)
(-0.0039576375 0.0094860556 -3.783584e-22)
(-0.0087501654 0.020113968 -1.3556053e-20)
(-0.011522424 0.02522706 -3.9915352e-20)
(-0.011957163 0.026579757 -7.4771779e-21)
(-0.010014815 0.02531318 -3.2729421e-21)
(-0.0057313927 0.022252688 7.5484442e-21)
(0.00083512216 0.018005198 -5.7470438e-21)
(0.0096130914 0.013008642 -1.0398064e-20)
(0.020523478 0.007575683 2.5069389e-20)
(0.033485249 0.0019277175 5.5863449e-21)
(0.048419232 -0.003780375 -2.908714e-20)
(0.065247867 -0.0094425021 1.2233885e-20)
(0.083895561 -0.014988371 0)
(0.10428912 -0.020373546 1.3428271e-20)
(0.12636076 -0.025570611 -1.0728409e-20)
(0.15004733 -0.030561681 -1.5998915e-20)
(0.17524365 -0.035345395 -8.2218062e-22)
(0.20176271 -0.039949491 -2.7578149e-21)
(0.22999506 -0.044193426 4.8978267e-20)
(0.26219869 -0.046935943 -1.2447205e-20)
(-0.0045690606 0.0097109915 -7.9034484e-21)
(-0.0090962388 0.020106243 2.73369e-20)
(-0.0097502451 0.024814658 -1.2354403e-20)
(-0.0067757176 0.025621241 -3.0941575e-20)
(-0.0004746707 0.023707742 -3.0131515e-20)
(0.0089268475 0.019959861 -1.6964396e-20)
(0.021228616 0.015030742 -9.8057542e-22)
(0.036248257 0.0093904823 6.3519647e-21)
(0.053823603 0.0033754738 2.2026186e-20)
(0.073808972 -0.0027751533 8.2491843e-21)
(0.096069843 -0.0088939886 -7.9404445e-21)
(0.12048003 -0.014866345 -1.9375485e-21)
(0.14691776 -0.020616798 -4.2442587e-20)
(0.175263 -0.026099335 -1.4027489e-20)
(0.20539906 -0.031289044 2.1200186e-20)
(0.23721391 -0.036176216 -2.3451813e-20)
(0.27054973 -0.040782992 -9.8356484e-21)
(0.30512968 -0.045194108 3.2457476e-20)
(0.3413539 -0.049200834 5.3874776e-20)
(0.38237968 -0.051097335 3.7318851e-21)
(-0.0047897603 0.0091266368 1.7522131e-20)
(-0.0082641848 0.018137972 1.5168738e-20)
(-0.0059591741 0.021750714 5.5784444e-20)
(0.0013226492 0.021645304 2.6195209e-20)
(0.012932493 0.018957138 2.0758809e-22)
(0.028444179 0.014578403 -4.438979e-20)
(0.047502855 0.0091676669 -2.7046551e-20)
(0.069802269 0.0031968295 1.1681391e-20)
(0.095078467 -0.0029970884 1.6032229e-20)
(0.12309941 -0.0091746713 -1.4358954e-20)
(0.15365328 -0.015168842 -4.9036625e-20)
(0.18653917 -0.020866443 3.2929064e-20)
(0.22155951 -0.026194982 2.1843553e-20)
(0.25851432 -0.031113617 -3.0346364e-20)
(0.29720104 -0.035606332 1.2961011e-20)
(0.33741852 -0.039678621 2.6400613e-20)
(0.37892135 -0.043386124 8.9612596e-21)
(0.42131753 -0.046901146 -1.3334801e-20)
(0.46492958 -0.05006454 -1.4661972e-20)
(0.51373746 -0.050590063 8.0382238e-21)
(-0.0044271257 0.0078031087 1.186225e-20)
(-0.0057493079 0.014369223 -2.6032471e-20)
(0.0005717834 0.016265302 8.43825e-21)
(0.013201441 0.014950334 3.6995406e-20)
(0.031152385 0.011433091 5.6653981e-20)
(0.053795276 0.006561512 2.2306581e-20)
(0.080610981 0.00096048911 -6.4237624e-21)
(0.11115063 -0.0049289275 -1.3528441e-20)
(0.14502747 -0.010793774 -6.9240426e-21)
(0.18189696 -0.016414056 3.7836624e-20)
(0.22143775 -0.021639558 -5.2276544e-21)
(0.26333728 -0.026372741 -1.8532464e-20)
(0.30728094 -0.030556654 -2.148812e-20)
(0.35294422 -0.034167367 -5.2179041e-20)
(0.39999189 -0.037209192 2.5308854e-20)
(0.44808616 -0.03971446 -1.535536e-20)
(0.49685536 -0.041785771 2.8511751e-20)
(0.54577972 -0.043717615 2.3029781e-20)
(0.59504012 -0.045521467 -9.0594743e-20)
(0.64924553 -0.044493161 4.4578958e-22)
(-0.0032999486 0.0058577896 2.3080734e-20)
(-0.0010646793 0.0090963365 -2.849289e-20)
(0.010553309 0.0088053459 -4.8162881e-20)
(0.02972185 0.0061210189 -2.9499312e-20)
(0.055131447 0.0018537599 -2.2292932e-21)
(0.085945089 -0.0032411078 1.4367519e-20)
(0.12146589 -0.0086116825 -3.1166496e-21)
(0.16108311 -0.013879807 1.978656e-20)
(0.20425851 -0.018784148 9.6670906e-21)
(0.25049911 -0.023147911 -1.2466158e-20)
(0.29933203 -0.026859004 9.9460885e-21)
(0.35028658 -0.029855093 -2.6251925e-20)
(0.40288169 -0.032112844 9.2247053e-21)
(0.45661792 -0.033641213 1.8413228e-20)
(0.51097671 -0.034477371 -3.1377844e-21)
(0.56543091 -0.034688441 1.9876833e-21)
(0.61942993 -0.034425049 -6.6605216e-22)
(0.67230668 -0.034087774 2.1581746e-20)
(0.72407082 -0.033880058 3.9700629e-21)
(0.77972604 -0.031181157 -2.6867347e-21)
(-0.0012390961 0.0034435792 2.5250937e-20)
(0.0062390759 0.0027365406 6.1684691e-20)
(0.024631503 3.1238221e-05 -5.2310246e-20)
(0.051645291 -0.0039537863 -1.0714468e-20)
(0.085663185 -0.0086786086 2.193316e-20)
(0.12563663 -0.013527798 2.3134752e-21)
(0.1706751 -0.018062865 -3.2243935e-20)
(0.21997876 -0.02200547 7.5915139e-21)
(0.27282145 -0.02517939 7.7073298e-21)
(0.32851875 -0.027482347 -2.8614875e-20)
(0.38640052 -0.028870382 1.404865e-21)
(0.44579392 -0.029345081 -4.0730597e-20)
(0.50601444 -0.028943104 -3.9850361e-20)
(0.56636331 -0.027727794 7.2058899e-20)
(0.6261308 -0.025781814 6.0956724e-21)
(0.6846036 -0.023206069 -1.6591082e-20)
(0.74105067 -0.020159775 2.1072925e-20)
(0.79465089 -0.016945724 -9.8441643e-22)
(0.84495314 -0.013589882 2.1185919e-20)
(0.89562569 -0.0085858157 -2.2021074e-20)
(-0.00053203306 -0.0064362248 6.4164788e-20)
(0.010241942 -0.0069503115 1.6879605e-20)
(0.022452816 -0.0073591163 -3.7630823e-20)
(0.035742019 -0.0075906868 1.8223267e-20)
(0.04982644 -0.0077297759 0)
(0.064636501 -0.0078062582 0)
(0.080106304 -0.007823206 -2.417237e-20)
(0.096148986 -0.0077887274 -1.7181671e-20)
(0.11268631 -0.0077128435 2.0071174e-20)
(0.12965174 -0.0076029246 1.8873065e-20)
(0.14698409 -0.0074645955 1.0352618e-21)
(0.16462574 -0.0073028071 -1.0458546e-20)
(0.18252299 -0.0071218868 8.6718075e-21)
(0.20062578 -0.0069255103 1.8267152e-20)
(0.21888707 -0.0067168252 -5.4791307e-21)
(0.23726246 -0.006498563 -1.004141e-20)
(0.25570998 -0.0062731061 -4.2292851e-21)
(0.27418994 -0.0060425399 -4.2086162e-21)
(0.29266477 -0.0058087003 6.7796829e-22)
(0.31109899 -0.0055732104 1.2045461e-21)
(0.32945914 -0.0053375097 2.5843188e-21)
(0.34771382 -0.0051028755 6.4063326e-21)
(0.36583365 -0.0048704401 9.5756833e-23)
(0.38379135 -0.0046412038 -3.3008661e-21)
(0.40156173 -0.0044160448 1.1745303e-22)
(0.41912172 -0.0041957275 -5.4484663e-22)
(0.43645041 -0.0039809089 1.1662786e-21)
(0.45352899 -0.0037721454 9.3254121e-22)
(0.47034082 -0.0035698983 -1.2877062e-21)
(0.48687134 -0.0033745395 -9.0232044e-23)
(0.50310805 -0.0031863581 -7.8277977e-23)
(0.51904046 -0.0030055661 -3.1892036e-22)
(0.53466004 -0.0028323054 -4.1223842e-22)
(0.54996013 -0.0026666548 1.0651534e-22)
(0.56493585 -0.0025086365 -1.2236998e-22)
(0.57958406 -0.0023582244 -1.8512625e-22)
(0.5939033 -0.002215351 2.0993007e-22)
(0.60789369 -0.0020799155 2.3534352e-22)
(0.62155687 -0.0019517934 -4.3797509e-23)
(0.63489634 -0.0018308415 -1.6723003e-22)
(0.64791627 -0.0017169266 9.2955004e-24)
(0.66062572 -0.0016098815 -1.7885822e-23)
(0.67302625 -0.0015097212 7.3939133e-23)
(0.68515132 -0.0014160584 -3.3698576e-23)
(0.69695061 -0.0013301387 -1.4341169e-22)
(0.70863838 -0.0012487829 1.1788109e-23)
(0.71968312 -0.0011839732 9.1961325e-24)
(0.73175658 -0.0011038924 -6.0736104e-24)
(0.74029731 -0.0011151126 2.4231334e-23)
(0.7581379 -0.00094676678 3.7689656e-22)
(0.030045647 -0.018943602 -1.4518833e-20)
(0.039807323 -0.020504238 -6.8474931e-20)
(0.051488574 -0.021705879 -3.348966e-20)
(0.06421944 -0.022365473 4.1490426e-20)
(0.077598749 -0.022764666 1.5722733e-20)
(0.091638031 -0.022990158 -1.9742532e-20)
(0.10630445 -0.023043166 5.4124971e-21)
(0.12151423 -0.022946018 2.6570013e-20)
(0.13719661 -0.022728533 -2.989873e-22)
(0.1532948 -0.02241189 -8.1043534e-21)
(0.16975487 -0.022011972 -1.2857887e-20)
(0.18652464 -0.021542973 -9.017539e-21)
(0.20355503 -0.0210174 1.7990114e-20)
(0.22079983 -0.020445884 9.8706658e-21)
(0.23821513 -0.019837554 -1.6093343e-20)
(0.25575903 -0.019200368 -5.9937865e-21)
(0.27339162 -0.018541297 3.0598282e-21)
(0.29107484 -0.017866467 8.0265243e-21)
(0.30877243 -0.01718129 6.9073388e-21)
(0.32644997 -0.016490573 -7.1077641e-21)
(0.3440748 -0.015798588 -3.4608812e-21)
(0.36161615 -0.015109141 1.6520094e-21)
(0.37904512 -0.014425614 7.729821e-22)
(0.39633475 -0.013751004 1.2567193e-21)
(0.41346005 -0.013087947 2.6025294e-22)
(0.43039806 -0.012438744 -3.9180403e-22)
(0.44712787 -0.011805379 -7.5709799e-22)
(0.4636306 -0.011189537 1.1087363e-21)
(0.47988944 -0.010592619 8.8724266e-22)
(0.49588959 -0.010015761 -3.2082968e-22)
(0.51161826 -0.0094598505 6.1281906e-22)
(0.52706462 -0.0089255476 -2.1673701e-22)
(0.54221972 -0.0084133008 -4.2905517e-22)
(0.55707644 -0.00792337 -6.2556911e-22)
(0.57162941 -0.0074558467 3.9201694e-22)
(0.58587498 -0.0070106762 -1.5153429e-22)
(0.59981111 -0.0065876807 2.457998e-22)
(0.61343734 -0.0061865815 -4.7596781e-22)
(0.62675472 -0.0058070296 4.7942748e-22)
(0.63976614 -0.0054486173 5.7400588e-23)
(0.65247513 -0.0051109683 -3.9030761e-23)
(0.66489011 -0.0047936019 2.307384e-22)
(0.67701206 -0.0044965833 3.1109491e-22)
(0.68887358 -0.0042187706 2.3929509e-22)
(0.70042437 -0.0039639071 2.6116784e-22)
(0.71187577 -0.003722502 -1.3809336e-23)
(0.72270226 -0.0035303477 1.3427654e-22)
(0.73455354 -0.0032925241 1.1712608e-22)
(0.74292978 -0.0033265031 -2.0846262e-22)
(0.76047489 -0.0028263895 3.3491474e-24)
(0.089334469 -0.030322452 1.0655594e-20)
(0.097103771 -0.03294021 4.1138615e-21)
(0.1076337 -0.03488213 -1.4525643e-20)
(0.11922372 -0.035895248 -1.8314841e-21)
(0.13118418 -0.036520623 1.6569439e-20)
(0.14368383 -0.036896248 -1.5903834e-20)
(0.15676238 -0.037002289 -3.2145712e-20)
(0.1703384 -0.036869454 1.5742637e-20)
(0.18435231 -0.036546534 1.9489763e-20)
(0.19876532 -0.036066355 -1.2331373e-20)
(0.21353669 -0.035452548 1.0559976e-21)
(0.22862362 -0.034726789 8.2969937e-21)
(0.24398496 -0.033908543 -1.5981495e-20)
(0.25958119 -0.033014431 4.1693882e-21)
(0.27537372 -0.032058789 7.9248693e-21)
(0.29132493 -0.031054224 -7.656003e-22)
(0.30739831 -0.030011873 -2.25663e-22)
(0.32355852 -0.028941602 -7.7339211e-21)
(0.33977149 -0.027852192 4.6813987e-21)
(0.35600444 -0.02675149 8.7430412e-21)
(0.37222604 -0.025646519 -3.9225393e-21)
(0.38840648 -0.024543567 -2.1524217e-21)
(0.40451759 -0.023448255 8.2738404e-22)
(0.42053286 -0.02236558 -1.8007318e-21)
(0.43642759 -0.021299966 1.2900895e-21)
(0.45217891 -0.020255286 6.8148514e-22)
(0.46776582 -0.019234898 1.9205007e-21)
(0.48316924 -0.018241667 -2.2697513e-21)
(0.49837198 -0.017277994 2.5712396e-21)
(0.5133588 -0.016345841 6.081572e-22)
(0.52811631 -0.015446759 7.0781692e-22)
(0.54263299 -0.014581922 2.9230833e-22)
(0.55689911 -0.013752152 1.0805792e-21)
(0.5709067 -0.012957961 -1.6415149e-21)
(0.58464949 -0.012199577 4.6163364e-22)
(0.5981228 -0.011476985 2.7007957e-22)
(0.61132358 -0.010789966 -9.4628941e-23)
(0.62425029 -0.010138129 -1.6518304e-23)
(0.63690287 -0.0095209674 -4.1401693e-22)
(0.64928304 -0.008937872 2.4151256e-22)
(0.66139322 -0.0083882852 -2.746374e-23)
(0.67324061 -0.0078714718 6.1059562e-22)
(0.6848251 -0.0073876013 -2.8100879e-22)
(0.6961777 -0.0069348335 3.3084928e-23)
(0.70724815 -0.0065194195 8.8392298e-23)
(0.71824232 -0.0061257114 -1.0229916e-22)
(0.72864603 -0.0058127896 -1.7320106e-22)
(0.74006683 -0.0054243937 5.6905929e-22)
(0.74812373 -0.005481757 1.8539676e-22)
(0.76509559 -0.0046647744 -8.6236839e-22)
(0.17422267 -0.039799381 1.9654197e-21)
(0.17906424 -0.043459699 -1.1924813e-20)
(0.18769428 -0.046064007 6.5698179e-21)
(0.19751029 -0.047345135 -1.4425972e-20)
(0.20733334 -0.048168888 -2.1286689e-21)
(0.21753483 -0.048713231 1.0354975e-20)
(0.22827532 -0.048914405 -1.1446639e-20)
(0.23947288 -0.048802217 9.1465594e-22)
(0.25107602 -0.048441743 1.3586961e-20)
(0.26306911 -0.047874735 4.0232804e-21)
(0.27542857 -0.047129354 -6.4548971e-21)
(0.28812266 -0.046232121 -3.387201e-21)
(0.3011194 -0.045207631 -5.3992229e-21)
(0.31438706 -0.044077179 -6.9411389e-21)
(0.32789323 -0.042859302 2.569788e-21)
(0.34160511 -0.041570491 2.3374443e-23)
(0.35548994 -0.040225515 1.6664256e-21)
(0.36951535 -0.038837616 -3.3806665e-21)
(0.38364954 -0.037418707 -4.7397721e-21)
(0.39786149 -0.035979537 2.5950675e-21)
(0.41212114 -0.034529811 3.6498111e-21)
(0.42639961 -0.033078286 -1.9667201e-21)
(0.44066933 -0.031632842 1.7306715e-21)
(0.45490415 -0.030200531 -5.6751898e-22)
(0.46907947 -0.028787631 -4.482486e-21)
(0.48317234 -0.027399674 -3.0731099e-21)
(0.49716148 -0.026041482 -3.4257376e-22)
(0.51102737 -0.024717204 2.5664185e-22)
(0.52475224 -0.023430342 -2.2030066e-21)
(0.53832008 -0.022183792 -1.1695744e-21)
(0.55171667 -0.020979878 2.098669e-22)
(0.56492949 -0.019820395 -1.4647358e-21)
(0.57794774 -0.018706651 -9.6381593e-23)
(0.59076225 -0.017639516 -5.5124005e-22)
(0.60336548 -0.016619465 -4.235163e-22)
(0.61575144 -0.01564663 -7.7209806e-22)
(0.62791565 -0.014720853 -1.1597747e-21)
(0.63985513 -0.013841737 8.037497e-24)
(0.65156831 -0.013008715 -3.2965003e-24)
(0.66305541 -0.012221076 -6.6312705e-22)
(0.67431728 -0.011478174 1.8376753e-23)
(0.6853595 -0.01077911 -4.6612785e-22)
(0.69618056 -0.010124236 -7.092988e-22)
(0.70680924 -0.0095111073 5.4872753e-22)
(0.71719545 -0.008948471 1.315222e-23)
(0.72753732 -0.0084148243 2.7315551e-22)
(0.73733703 -0.0079915375 -2.0099212e-22)
(0.74814149 -0.0074642515 -3.8456551e-22)
(0.75574127 -0.007545545 -2.3351921e-24)
(0.77188931 -0.0064361337 4.966848e-22)
(0.28049242 -0.04655888 -2.3922846e-20)
(0.28149496 -0.051240445 5.1093221e-20)
(0.28734063 -0.054419095 1.0917682e-20)
(0.29466757 -0.055909734 -1.7131794e-20)
(0.30163939 -0.056941818 -2.7266321e-21)
(0.30881439 -0.057708712 2.2474197e-21)
(0.31652063 -0.058086104 -2.3116778e-21)
(0.32467763 -0.058092781 -4.9614149e-21)
(0.33323081 -0.057802944 -4.2406895e-21)
(0.34218636 -0.057263838 -1.2829299e-20)
(0.35153934 -0.056505705 1.941702e-20)
(0.36126835 -0.055557214 7.2583056e-21)
(0.37134912 -0.054445918 -1.7326019e-20)
(0.38175665 -0.053196399 9.7847121e-21)
(0.39246383 -0.051830461 7.7429471e-21)
(0.40344182 -0.050367799 -1.2269286e-22)
(0.41466081 -0.048826351 -2.6404885e-21)
(0.42609064 -0.047222465 -4.5104573e-21)
(0.43770111 -0.045571057 -1.7057313e-21)
(0.44946229 -0.043885739 -1.5062232e-21)
(0.46134487 -0.042178934 -3.547629e-21)
(0.47332034 -0.040461946 0)
(0.48536127 -0.038745029 -1.5728967e-21)
(0.49744141 -0.037037427 4.0193857e-21)
(0.50953587 -0.035347417 5.8432201e-21)
(0.52162123 -0.033682345 -8.9165828e-22)
(0.5336756 -0.03204866 -3.4856022e-21)
(0.54567866 -0.030451949 3.6934105e-21)
(0.55761176 -0.028896977 -6.9533277e-23)
(0.56945788 -0.027387727 3.958646e-21)
(0.58120163 -0.025927451 -4.9315009e-22)
(0.59282926 -0.024518717 1.8464266e-21)
(0.60432862 -0.023163464 -9.6467458e-22)
(0.61568913 -0.021863064 4.7783221e-22)
(0.62690174 -0.020618378 -5.9418122e-22)
(0.63795887 -0.019429823 5.9647687e-22)
(0.64885442 -0.018297434 5.7969997e-22)
(0.65958373 -0.017220937 4.8803508e-22)
(0.67014351 -0.016199828 -1.1947119e-21)
(0.68053221 -0.015233414 8.5611915e-22)
(0.69074892 -0.014321075 -4.4499095e-22)
(0.70079736 -0.013461858 -1.4997439e-21)
(0.71067439 -0.012656393 1.9147609e-21)
(0.72040621 -0.011901747 -5.1557373e-23)
(0.72994308 -0.011209127 -2.1879621e-22)
(0.73947354 -0.010551597 -6.6606328e-24)
(0.74852063 -0.010031401 -2.30411e-22)
(0.75855449 -0.0093805895 -6.5747712e-22)
(0.76558336 -0.0094862069 7.3853106e-22)
(0.7806954 -0.0081167574 -5.2989686e-23)
(0.40297887 -0.049642554 -2.0088133e-20)
(0.3992886 -0.055383502 1.3445473e-20)
(0.40138365 -0.059094077 4.2481272e-21)
(0.40543729 -0.060827448 -8.3470772e-21)
(0.40888939 -0.062158946 1.3041921e-20)
(0.41239018 -0.063257858 8.4003568e-21)
(0.4164581 -0.063943345 -1.3004611e-20)
(0.42103118 -0.064220105 -6.4629707e-21)
(0.42603677 -0.064158696 1.3446492e-20)
(0.43149076 -0.063805526 -1.7112499e-20)
(0.43740403 -0.063191616 -1.4705352e-20)
(0.44376348 -0.062346317 1.5810792e-20)
(0.45054895 -0.06129832 7.1060886e-21)
(0.45773893 -0.060074331 -5.6556364e-21)
(0.4653092 -0.058698856 -1.1152883e-21)
(0.47323286 -0.0571945 -3.3923834e-21)
(0.48148132 -0.055582226 4.6023564e-21)
(0.49002507 -0.053881497 3.6968199e-21)
(0.49883419 -0.052110342 -3.0759861e-21)
(0.50787876 -0.050285421 3.1174309e-21)
(0.51712917 -0.048422096 3.0476424e-21)
(0.52655644 -0.046534469 -3.4574914e-21)
(0.53613251 -0.044635425 3.6557876e-22)
(0.54583035 -0.04273666 -3.1569475e-21)
(0.55562418 -0.040848711 8.5864161e-21)
(0.5654896 -0.038980987 6.7250889e-21)
(0.5754036 -0.037141803 1.1560622e-21)
(0.58534471 -0.035338416 -1.8738036e-21)
(0.59529301 -0.033577071 4.5481419e-21)
(0.60523014 -0.031863049 8.4910197e-21)
(0.61513931 -0.030200725 2.4457764e-21)
(0.62500528 -0.028593628 3.9006825e-21)
(0.63481436 -0.027044509 2.2135988e-21)
(0.64455438 -0.025555412 9.0732639e-22)
(0.65421462 -0.024127748 -2.3756536e-22)
(0.66378582 -0.022762371 3.2695874e-21)
(0.67326013 -0.021459663 7.326167e-22)
(0.68263113 -0.02021961 3.3082655e-22)
(0.6918937 -0.019041913 5.7411507e-23)
(0.70104449 -0.017926024 1.3157241e-21)
(0.71008074 -0.016871473 4.025891e-23)
(0.71900424 -0.015877371 6.3780574e-22)
(0.7278102 -0.014944721 -1.2677338e-22)
(0.73652204 -0.014070231 -4.5374508e-22)
(0.74509067 -0.013267512 -2.2082736e-22)
(0.75369356 -0.012504683 -6.029029e-22)
(0.76187857 -0.011903138 2.6973115e-22)
(0.77102566 -0.011146774 -1.764874e-22)
(0.77739907 -0.011276938 -4.2281525e-22)
(0.79130935 -0.00968564 2.9790862e-22)
(0.53548802 -0.048136245 3.3529656e-21)
(0.52647956 -0.054988292 -1.9519237e-20)
(0.5239055 -0.059247663 -2.7102772e-21)
(0.52392314 -0.061418275 5.8002267e-21)
(0.52333884 -0.06327981 3.8308871e-21)
(0.52270576 -0.064907741 8.9006225e-22)
(0.52269913 -0.066094694 7.6316329e-21)
(0.52331742 -0.066846672 8.395065e-21)
(0.52446755 -0.067220515 1.0223633e-20)
(0.52615264 -0.067253096 -1.213907e-20)
(0.52838903 -0.066974518 -2.3549899e-20)
(0.53116882 -0.06641487 -4.7715184e-21)
(0.53447232 -0.065603548 1.7209715e-20)
(0.53827728 -0.064569 1.3677848e-20)
(0.54255912 -0.063338485 -5.673833e-21)
(0.54729041 -0.061937818 6.8581471e-22)
(0.55244176 -0.060391372 -4.4321881e-21)
(0.5579826 -0.058722134 3.4848513e-21)
(0.56388187 -0.056951689 -2.9443703e-22)
(0.57010835 -0.0551002 -2.0168093e-21)
(0.57663112 -0.053186408 8.8118471e-21)
(0.5834198 -0.051227642 -5.8161045e-22)
(0.59044486 -0.049239827 6.8633651e-22)
(0.59767779 -0.047237493 -3.7185925e-22)
(0.60509131 -0.045233798 -4.6097358e-21)
(0.61265943 -0.043240548 4.4951316e-21)
(0.62035761 -0.041268234 1.8171618e-21)
(0.62816276 -0.039326073 -3.5075331e-21)