/*--------------------------------*- C++ -*----------------------------------*\
  =========                 |
  \\      /  F ield         | OpenFOAM: The Open Source CFD Toolbox
   \\    /   O peration     | Website:  https://openfoam.org
    \\  /    A nd           | Version:  6
     \\/     M anipulation  |
\*---------------------------------------------------------------------------*/
FoamFile
{
    version     2.0;
    format      ascii;
    class       surfaceScalarField;
    location    "185";
    object      phi_0;
}
// * * * * * * * * * * * * * * * * * * * * * * * * * * * * * * * * * * * * * //

dimensions      [0 3 -1 0 0 0 0];

internalField   nonuniform List<scalar> 
18180
(
0.00031872922
-0.00016316006
-0.00015556916
0.0013092108
-0.001366916
0.00037643436
0.0030328872
-0.0033336201
0.0016099438
0.0055497728
-0.0059759596
0.003459074
0.0089181957
-0.0092390803
0.0058706574
0.01319281
-0.01307953
0.0088049158
0.018421939
-0.017459842
0.012230714
0.0246446
-0.022345802
0.01612314
0.031887364
-0.027703319
0.020460555
0.040161274
-0.03349581
0.025221901
0.049459158
-0.039682443
0.030384559
0.05975371
-0.046217214
0.035922662
0.070996719
-0.053048855
0.041805846
0.083119922
-0.060121591
0.047998387
0.096038095
-0.067376844
0.054458672
0.10965488
-0.074756006
0.06113922
0.12387081
-0.082204098
0.067988165
0.13859854
-0.089674082
0.074946354
0.15383664
-0.097148828
0.081910731
-0.10462596
0.088678886
0.16978372
0.00039749702
-0.00056065709
0.0016095945
-0.0025790135
0.0036893175
-0.0054133431
0.0066874426
-0.0089740847
0.01065065
-0.013202288
0.015617867
-0.018046747
0.021616255
-0.02345823
0.028657253
-0.029386799
0.036732938
-0.035779005
0.045813137
-0.042576009
0.05584368
-0.049712986
0.066746194
-0.057119728
0.07841965
-0.064722311
0.090743765
-0.072445706
0.10358405
-0.080217129
0.1167979
-0.087969852
0.13024077
-0.095646967
0.14377297
-0.10320628
0.15725856
-0.11063443
-0.11786189
0.17049449
0.00048062336
-0.0010412805
0.001918698
-0.0040170881
0.0043524782
-0.0078471234
0.0078165622
-0.012438169
0.012337663
-0.017723389
0.017929204
-0.023638289
0.024586245
-0.030115271
0.032281205
-0.037081759
0.040960834
-0.044458634
0.050544914
-0.052160088
0.060927059
-0.060095131
0.071977796
-0.068170465
0.083549787
-0.076294302
0.0954848
-0.084380719
0.10762168
-0.092354006
0.11980425
-0.10015242
0.13188799
-0.10773071
0.14374347
-0.11506176
0.1552487
-0.12213965
-0.12891429
0.16630109
0.0005661696
-0.0016074501
0.0022279421
-0.0056788606
0.0050006105
-0.010619792
0.0088940094
-0.016331568
0.013905256
-0.022734635
0.020011879
-0.029744912
0.027166484
-0.037269876
0.035293412
-0.045208687
0.044287852
-0.053453073
0.054017771
-0.061890007
0.064328713
-0.070406074
0.075051124
-0.078892876
0.086009517
-0.087252696
0.097032492
-0.095403693
0.10796246
-0.10328397
0.11866395
-0.11085392
0.12902965
-0.11809641
0.13898297
-0.12501508
0.14847491
-0.1316316
-0.1379452
0.15750582
0.00065088616
-0.0022583363
0.0025243414
-0.0075523158
0.0056036339
-0.013699084
0.0098644639
-0.020592398
0.01526461
-0.028134781
0.021736408
-0.03621671
0.029182479
-0.044715947
0.037474891
-0.053501099
0.046457999
-0.062436181
0.055954834
-0.071386842
0.065776428
-0.080227668
0.075733009
-0.088849457
0.085645714
-0.097165401
0.095357392
-0.10511537
0.10474121
-0.11266779
0.11370619
-0.1198189
0.12219937
-0.12658958
0.13020456
-0.13302028
0.137738
-0.13916503
-0.14506757
0.14486038
0.00073063575
-0.0029889721
0.002792086
-0.0096137661
0.0061265738
-0.017033572
0.010666711
-0.025132535
0.016322649
-0.033790718
0.022975242
-0.042869303
0.030474427
-0.052215132
0.038642396
-0.061669068
0.047281185
-0.07107497
0.05618373
-0.080289387
0.065146882
-0.089190821
0.073984595
-0.09768717
0.08253948
-0.10572029
0.090691298
-0.11326719
0.098361452
-0.12033794
0.1055133
-0.12697075
0.11214879
-0.13322507
0.1183024
-0.13917389
0.12403362
-0.14489625
-0.1504633
0.12942935
0.00080073113
-0.0037897032
0.0030139159
-0.011826951
0.0065328938
-0.02055255
0.011240051
-0.029839692
0.016992696
-0.039543363
0.023618543
-0.04949515
0.030918213
-0.059514802
0.038673316
-0.06942417
0.04665877
-0.079060425
0.054657395
-0.088288012
0.062474456
-0.097007882
0.069949953
-0.10516267
0.076966962
-0.11273729
0.0834551
-0.11975533
0.089389111
-0.12627195
0.094783315
-0.13236495
0.099683307
-0.13812506
0.1041565
-0.14364709
0.10828311
-0.14902286
-0.15433357
0.11215338
0.00085605867
-0.0046457618
0.0031720604
-0.014142953
0.0067872253
-0.024167715
0.011529801
-0.034582268
0.017203433
-0.045216995
0.023586547
-0.055878264
0.030439873
-0.066368129
0.037519326
-0.076503624
0.044591797
-0.086132896
0.051451002
-0.095147217
0.057930631
-0.10348751
0.063912776
-0.11114481
0.069330645
-0.11815516
0.074165694
-0.12459038
0.078440256
-0.13054652
0.082207338
-0.13613203
0.085539503
-0.14145723
0.088518562
-0.14662614
0.091227359
-0.15173166
-0.15685205
0.093745844
0.0008902623
-0.0055360242
0.0032482831
-0.016500973
0.0068576217
-0.027777054
0.011492463
-0.03921711
0.016906808
-0.05063134
0.022838894
-0.06181035
0.029023669
-0.072552903
0.03520925
-0.082689205
0.041173928
-0.092097574
0.046740396
-0.10071369
0.051784656
-0.10853177
0.056238408
-0.11559856
0.06008514
-0.12200189
0.063351248
-0.12785648
0.066094215
-0.13328948
0.068390056
-0.13842788
0.070321924
-0.1433891
0.071971237
-0.14827546
0.073411926
-0.15317235
-0.1581477
0.074707578
0.00089981829
-0.0064358424
0.0032333804
-0.018834535
0.0067291637
-0.031272837
0.011111176
-0.043599122
0.016092484
-0.055612648
0.021384622
-0.067102487
0.026713884
-0.077882165
0.031839116
-0.087814436
0.036567085
-0.096825544
0.040762272
-0.10490887
0.044349474
-0.11211897
0.04730935
-0.11855844
0.049668406
-0.12436095
0.051485814
-0.12967389
0.052839524
-0.13464319
0.053813819
-0.13940217
0.054489709
-0.14406499
0.054938817
-0.14872457
0.055220545
-0.15345408
0.055380979
-0.15830814
-0.00020237825
0.00020237824
2.7793795e-12
-0.00067774638
0.00047536813
3.6835455e-12
-0.0013424256
0.0006646792
5.1658501e-12
-0.0021322938
0.00078986824
5.9441124e-12
-0.0029957727
0.00086347881
5.6334264e-12
-0.0038907397
0.00089496707
4.5109318e-12
-0.0047822951
0.00089155536
3.0079215e-12
-0.0056408921
0.00085859704
1.1903179e-12
-0.0064408671
0.00079997492
-7.57237e-13
-0.0071592879
0.00071842086
-2.855524e-12
-0.0077750363
0.00061574838
-5.0018684e-12
-0.008268072
0.0004930357
-7.2314052e-12
-0.0086188534
0.00035078137
-9.4700798e-12
-0.0088079039
0.00018905058
-1.1739876e-11
-0.0088155572
7.6533065e-06
-1.4121013e-11
-0.0086219806
-0.00019357663
-1.6509443e-11
-0.0082074388
-0.00041454171
-1.895422e-11
-0.0075518892
-0.00065554962
-2.1559122e-11
-0.0066345754
-0.00091731378
-2.4125706e-11
-0.0011862306
-0.0054483448
-2.6513954e-11
-0.00018797446
0.0003903527
-0.00062500702
0.00091240069
-0.0012287532
0.0012684254
-0.0019351945
0.0014963095
-0.0026921393
0.0016204236
-0.0034562842
0.0016591119
-0.0041910673
0.0016263385
-0.0048648591
0.0015323888
-0.0054495243
0.0013846402
-0.0059192873
0.0011881838
-0.0062498161
0.00094627719
-0.006417481
0.00066070067
-0.0063987498
0.00033205014
-0.0061697083
-3.9990946e-05
-0.0057057355
-0.00045631942
-0.0049814236
-0.00091788853
-0.0039707935
-0.0014251719
-0.0026472156
-0.0019791275
-0.00098326007
-0.0025812693
-0.0032017812
0.0010322905
-0.00015892785
0.00054928056
-0.00051889145
0.0012723643
-0.00100077
0.001750304
-0.0015412594
0.0020367989
-0.0020873499
0.0021665141
-0.0025937353
0.0021654974
-0.0030208685
0.0020534716
-0.0033332939
0.0018448143
-0.0034983026
0.0015496488
-0.0034848554
0.0011747366
-0.0032626995
0.00072412133
-0.0028016487
0.00019964984
-0.0020709493
-0.00039864924
-0.0010387666
-0.0010721736
0.00032824463
-0.0018233307
0.0020652168
-0.0026548607
0.0042090288
-0.0035689839
0.0067980005
-0.0045680993
0.0098718233
-0.0056550921
-0.0067797355
0.013449778
-0.00011756695
0.00066684751
-0.00036699852
0.0015217959
-0.00067351361
0.0020568191
-0.0009748256
0.0023381109
-0.001216854
0.0024085425
-0.0013515942
0.0023002375
-0.00133546
0.0020373375
-0.001127829
0.0016371833
-0.0006898459
0.0011116657
1.6529362e-05
0.00046836132
0.0010293061
-0.00028865536
0.0023871094
-0.0011581535
0.004129726
-0.0021412658
0.0062985849
-0.0032410326
0.0089372645
-0.0044620102
0.012092048
-0.0058096445
0.0158123
-0.0072892359
0.020150164
-0.0089059627
0.025160349
-0.010665277
-0.012492613
0.030873226
-6.6907635e-05
0.00073375514
-0.0001791665
0.0016340547
-0.00026653381
0.0021441864
-0.00026769148
0.0023392686
-0.00012719432
0.0022680453
0.00020616675
0.0019668765
0.00078069328
0.0014628109
0.0016429486
0.0007749279
0.0028387278
-8.4113465e-05
0.0044138432
-0.0011067541
0.0064146882
-0.0022895003
0.0088886533
-0.0036321187
0.011884452
-0.0051370646
0.015452451
-0.006809031
0.019645041
-0.0086546007
0.024517263
-0.010681866
0.030127679
-0.012899652
0.036538888
-0.015317172
0.043818287
-0.017944677
-0.020682531
0.052008205
-9.9846242e-06
0.00074373977
3.4534981e-05
0.0015895351
0.00019989017
0.0019788312
0.00054676571
0.0019923931
0.001132247
0.001682564
0.0020109809
0.0010881426
0.0032361395
0.00023765232
0.0048603035
-0.00084923602
0.0069361192
-0.0021599292
0.0095166737
-0.0036873085
0.012655702
-0.005428529
0.016407694
-0.0073841104
0.020827818
-0.0095571883
0.025971761
-0.011952974
0.031895631
-0.014578471
0.038656257
-0.017442492
0.046312372
-0.020555767
0.054926674
-0.023931473
0.064569658
-0.027587661
-0.031405584
0.075292711
5.07513e-05
0.00069298847
0.00026565772
0.0013746287
0.00070825425
0.0015362347
0.0014390301
0.0012616173
0.0025168198
0.00060477422
0.0039995656
-0.00039460317
0.0059449132
-0.0017076953
0.0084106012
-0.003314924
0.011454591
-0.0052039194
0.015135037
-0.0073677545
0.019510017
-0.0098035085
0.024637004
-0.012511098
0.030572134
-0.015492319
0.037369306
-0.018750146
0.045079247
-0.022288412
0.053748968
-0.026112214
0.063422581
-0.030229379
0.074144684
-0.034653577
0.085969312
-0.039412289
-0.044388491
0.098952218
0.00011379628
0.00057919218
0.00050850332
0.00097992167
0.0012459821
0.00079875589
0.0023867772
0.00012082222
0.0039912401
-0.0009996887
0.0061198747
-0.0025232378
0.0088333179
-0.0044211384
0.012192163
-0.0066737688
0.016256553
-0.0092683101
0.02108544
-0.012196641
0.02673554
-0.015453609
0.033260014
-0.019035571
0.040706874
-0.022939178
0.049117179
-0.027160451
0.058523139
-0.031694372
0.068946489
-0.036535563
0.080398306
-0.041681197
0.092882131
-0.047137402
0.10640547
-0.052935624
-0.058995657
0.12101263
0.00017849579
0.00040069639
0.00076002978
0.00039838768
0.0018053386
-0.00024655296
0.0033747132
-0.0014485523
0.0055289945
-0.0031539701
0.0083293179
-0.0053235612
0.011836488
-0.0079283084
0.016110056
-0.010947337
0.021207039
-0.014365293
0.027180299
-0.018169901
0.034076612
-0.022349922
0.04193447
-0.02689343
0.050781652
-0.03178636
0.060632583
-0.037011382
0.071485488
-0.042547276
0.083319377
-0.048369453
0.096091846
-0.054453666
0.10974041
-0.060785965
0.12419598
-0.067391198
-0.074274605
0.13947493
0.00024512723
0.0010199493
0.0023833401
0.0043938617
0.007110549
0.010591904
0.014894309
0.020070113
0.026165374
0.033217375
0.041252011
0.050281243
0.060300729
0.071287734
0.08319913
0.095968897
0.1095034
0.12366379
0.13818332
0.1525876
-0.0035077193
-0.0019406255
-3.8159586e-11
-0.0012859342
-0.002221785
-4.0673099e-11
0.0011946751
-0.0024806093
-4.3224544e-11
0.0038772097
-0.0026825345
-4.4363775e-11
0.0067348656
-0.0028576559
-4.6322209e-11
0.0097503372
-0.0030154715
-4.4068267e-11
0.01290469
-0.0031543524
-4.3035583e-11
0.0161799
-0.0032752106
-4.0082776e-11
0.019560268
-0.0033803674
-3.5727451e-11
0.023031573
-0.0034713053
-2.9913381e-11
0.02658053
-0.0035489568
-2.2365058e-11
0.030194713
-0.0036141833
-1.3238614e-11
0.03386248
-0.0036677668
-2.6017661e-12
0.037572834
-0.0037103538
9.0956604e-12
0.041315323
-0.0037424894
2.1565834e-11
0.045079976
-0.003764653
3.4209898e-11
0.048857252
-0.0037772758
4.658564e-11
0.052638006
-0.0037807546
5.7976081e-11
0.056413472
-0.0037754658
6.783859e-11
0.060175249
-0.0037617771
7.5459066e-11
0.063915306
-0.0037400566
8.0353997e-11
0.067625984
-0.0037106784
8.199883e-11
0.071300011
-0.0036740269
8.0150538e-11
0.07493051
-0.0036304992
7.465776e-11
0.078511014
-0.0035805045
6.5658995e-11
0.082035478
-0.0035244638
5.3507245e-11
0.085498285
-0.0034628073
3.8752695e-11
0.088894257
-0.0033959712
2.2257731e-11
0.092218651
-0.0033243948
4.843249e-12
0.095467168
-0.0032485162
-1.2259612e-11
0.098635937
-0.0031687695
-2.8261599e-11
0.10172152
-0.0030855807
-4.1793933e-11
0.10472088
-0.0029993658
-5.2455715e-11
0.10763141
-0.0029105278
-5.8847675e-11
0.11045087
-0.0028194563
-6.1154957e-11
0.11317739
-0.0027265268
-5.7839744e-11
0.1158095
-0.0026321019
-4.9613167e-11
0.11834603
-0.0025365336
-3.4922738e-11
0.1207862
-0.0024401709
-1.5011977e-11
0.12312956
-0.0023433602
1.0396965e-11
0.12537605
-0.0022464873
3.93023e-11
0.12752595
-0.0021499034
6.9729318e-11
0.12958025
-0.0020542981
9.6690669e-11
0.13153991
-0.0019596602
1.1522599e-10
0.13340902
-0.00186911
1.1794155e-10
0.13518609
-0.0017770692
9.7706115e-11
0.13689557
-0.001709476
5.3018927e-11
0.1384933
-0.001597739
-1.469535e-11
0.14018012
-0.0016868156
-1.0630117e-10
-0.0013310211
-1.5242039e-10
0.0028529031
-0.003761238
0.0049500464
-0.0043189284
0.0072929019
-0.0048234648
0.0098190274
-0.00520866
0.012507362
-0.0055459904
0.01534558
-0.0058536894
0.01831694
-0.0061257127
0.021405036
-0.0063633069
0.02459585
-0.0065711806
0.027876617
-0.006752073
0.031235207
-0.0069075469
0.034660139
-0.0070391148
0.038140555
-0.0071481826
0.041666108
-0.0072359075
0.045226882
-0.0073032631
0.048813342
-0.0073511132
0.05241631
-0.0073802435
0.05602694
-0.0073913847
0.059636713
-0.0073852386
0.063237435
-0.0073624993
0.066821247
-0.0073238681
0.070380633
-0.007270065
0.073908441
-0.0072018349
0.077397893
-0.0071199506
0.080842601
-0.0070252132
0.084236586
-0.0069184481
0.087574279
-0.0068005007
0.090850538
-0.0066722305
0.094060647
-0.0065345034
0.097200315
-0.0063881845
0.10026568
-0.0062341312
0.10325328
-0.0060731862
0.10616009
-0.0059061721
0.10898345
-0.0057338877
0.1117211
-0.0055571044
0.11437114
-0.0053765671
0.11693203
-0.005192996
0.11940259
-0.0050070906
0.12178196
-0.0048195455
0.12406965
-0.0046310502
0.12626554
-0.0044423754
0.12836986
-0.0042542217
0.13038353
-0.0040679656
0.13230745
-0.0038835886
0.13414564
-0.0037072992
0.13589661
-0.0035280399
0.13758435
-0.0033972104
0.13916575
-0.0031791359
0.14083641
-0.0033574841
-0.0026595882
0.015021111
-0.0053325714
0.016852208
-0.006150025
0.018905741
-0.0068769977
0.021111782
-0.0074147012
0.023458697
-0.0078929054
0.025942833
-0.0083378253
0.028551571
-0.0087344513
0.031271432
-0.009083168
0.034091315
-0.0093910637
0.03700099
-0.009661748
0.039990337
-0.0098968932
0.043049494
-0.010098272
0.046168937
-0.010267626
0.04933941
-0.010406381
0.052551885
-0.010515738
0.055797549
-0.010596778
0.059067813
-0.010650507
0.062354314
-0.010677886
0.06564893
-0.010679854
0.068943795
-0.010657364
0.072231321
-0.010611395
0.075504222
-0.010542965
0.078755531
-0.010453144
0.081978627
-0.010343047
0.085167252
-0.010213838
0.088315528
-0.010066724
0.09141797
-0.0099029422
0.094469495
-0.0097237555
0.097465428
-0.0095304371
0.10040151
-0.0093242627
0.10327387
-0.0091064959
0.10607907
-0.0088783817
0.10881403
-0.008641136
0.11147608
-0.0083959403
0.11406292
-0.0081439379
0.11657258
-0.0078862329
0.11900348
-0.0076238949
0.12135436
-0.0073579646
0.12362429
-0.0070894768
0.1258127
-0.0068194605
0.12791939
-0.0065490679
0.12994452
-0.0062793487
0.13188891
-0.0060123601
0.13375341
-0.0057480918
0.13554187
-0.0054957573
0.1372529
-0.0052390653
0.13890951
-0.0050538187
0.14047093
-0.0047405583
0.14212216
-0.0050087134
-0.0039963926
0.032056514
-0.0065158589
0.033471707
-0.0075652181
0.035077206
-0.008482497
0.036800035
-0.0091375301
0.038640879
-0.0097337497
0.040606036
-0.010302982
0.042688334
-0.010816749
0.044878249
-0.011273084
0.047168206
-0.011681021
0.049550977
-0.012044518
0.052018853
-0.012364769
0.054563878
-0.012643297
0.057178043
-0.01288179
0.059853303
-0.013081641
0.062581597
-0.013244032
0.06535488
-0.013370061
0.068165171
-0.013460798
0.071004593
-0.013517308
0.073865412
-0.013540674
0.076740078
-0.01353203
0.079621256
-0.013492573
0.082501868
-0.013423577
0.085375118
-0.013326394
0.088234524
-0.013202453
0.091073941
-0.013053256
0.093887581
-0.012880365
0.096670032
-0.012685393
0.099416262
-0.012469985
0.10212163
-0.012235808
0.1047819
-0.011984529
0.10739321
-0.011717806
0.1099521
-0.011437271
0.11245548
-0.011144521
0.11490065
-0.010841108
0.11728525
-0.010528538
0.11960728
-0.010208266
0.12186509
-0.0098817011
0.12405735
-0.0095502211
0.12618306
-0.0092151953
0.12824159
-0.0088779904
0.13023266
-0.0085401373
0.13215635
-0.0082030356
0.1340134
-0.0078694148
0.13580461
-0.0075392971
0.13753363
-0.0072247779
0.13919926
-0.0069046992
0.14082315
-0.0066777043
0.14236799
-0.0062854011
0.14400351
-0.0066442334
-0.0053573282
0.052648493
-0.0071561472
0.053489074
-0.008405799
0.054483182
-0.0094766052
0.05556513
-0.010219478
0.056749734
-0.010918354
0.058051289
-0.011604537
0.059468304
-0.012233764
0.060995913
-0.012800692
0.062629904
-0.013315012
0.064365679
-0.013780294
0.066197719
-0.014196809
0.068119753
-0.014565332
0.070125017
-0.014887054
0.072206409
-0.015163033
0.074356581
-0.015394204
0.076568022
-0.015581501
0.078833137
-0.015725914
0.081144334
-0.015828505
0.083494084
-0.015890424
0.085874984
-0.01591293
0.088279807
-0.015897396
0.090701552
-0.015845322
0.093133478
-0.01575832
0.095569144
-0.015638119
0.098002436
-0.015486547
0.10042759
-0.015305514
0.10283919
-0.015096999
0.10523223
-0.014863025
0.10760207
-0.014605645
0.10994445
-0.014326913
0.11225552
-0.014028875
0.1145318
-0.013713544
0.11677017
-0.013382896
0.11896791
-0.013038847
0.12112263
-0.012683259
0.1232323
-0.012317936
0.12529522
-0.011944626
0.12731004
-0.011565039
0.12927573
-0.01118088
0.13119159
-0.010793851
0.13305732
-0.010405866
0.13487296
-0.010018675
0.13663922
-0.0096356732
0.13835686
-0.0092569458
0.1400294
-0.0088973155
0.14165592
-0.0085312214
0.14325639
-0.0082781737
0.14479794
-0.0078269507
0.14643138
-0.008277675
-0.0067656342
0.075221689
-0.0070851245
0.075326641
-0.0085107516
0.075551
-0.0097009641
0.075851281
-0.010519759
0.07625552
-0.011322592
0.076780567
-0.012129584
0.077429461
-0.012882658
0.078202129
-0.01357336
0.07909688
-0.014209763
0.080110567
-0.014793981
0.081238946
-0.015325187
0.08247672
-0.015803106
0.083817705
-0.016228039
0.085255122
-0.01660045
0.086781793
-0.016920875
0.088390267
-0.017189974
0.090072924
-0.017408571
0.091822086
-0.017577667
0.093630109
-0.017698447
0.095489456
-0.017772276
0.097392759
-0.0178007
0.099332878
-0.01778544
0.10130294
-0.017728385
0.10329639
-0.017631567
0.105307
-0.017497155
0.10732891
-0.017327422
0.10935663
-0.017124726
0.11138509
-0.016891481
0.11340958
-0.016630138
0.11542582
-0.01634315
0.1174299
-0.016032959
0.11941833
-0.015701972
0.12138798
-0.015352545
0.12333611
-0.014986971
0.12526032
-0.014607473
0.12715859
-0.014216207
0.12902923
-0.013815268
0.1308709
-0.013406703
0.13268257
-0.012992557
0.1344636
-0.012574879
0.1362137
-0.012155964
0.13793295
-0.011737927
0.13962209
-0.011324815
0.14128197
-0.010916822
0.14291597
-0.010531316
0.14452361
-0.010138863
0.14612301
-0.009877572
0.14768645
-0.0093903951
0.1493434
-0.0099346213
-0.0082534237
0.098025218
-0.0061581242
0.097257938
-0.0077434719
0.096581641
-0.0090246664
0.095997196
-0.0099353147
0.095540734
-0.01086613
0.095223486
-0.011812336
0.095050819
-0.012709991
0.095026736
-0.013549277
0.09515077
-0.014333797
0.095419655
-0.015062866
0.095829031
-0.015734564
0.096373489
-0.016347563
0.097046543
-0.016901093
0.097840961
-0.017394868
0.098749059
-0.017828974
0.099762865
-0.018203781
0.10087424
-0.01851995
0.10207501
-0.018778434
0.10335704
-0.018980475
0.10471234
-0.019127573
0.10613312
-0.019221484
0.10761187
-0.01926419
0.10914138
-0.019257891
0.11071478
-0.019204969
0.11232559
-0.01910797
0.11396774
-0.01896957
0.11563556
-0.018792541
0.1173238
-0.018579724
0.11902766
-0.018334001
0.12074276
-0.018058252
0.12246515
-0.017755349
0.12419129
-0.017428111
0.12591805
-0.017079302
0.12764269
-0.01671161
0.12936286
-0.016327642
0.13107657
-0.015929924
0.13278222
-0.01552091
0.13447852
-0.015103004
0.13616457
-0.014678606
0.13783981
-0.014250119
0.13950408
-0.013820238
0.14115761
-0.013391453
0.14280125
-0.012968464
0.14443604
-0.012551607
0.14606535
-0.012160622
0.14768923
-0.011762751
0.14932393
-0.011512264
0.15094734
-0.011013811
0.15266638
-0.011653661
-0.0098624563
0.11918899
-0.0043344777
0.11749638
-0.006050865
0.11585686
-0.0073851452
0.11435433
-0.0084327825
0.11302502
-0.009536825
0.11186645
-0.010653768
0.11088409
-0.011727627
0.11008421
-0.012749399
0.10946623
-0.013715814
0.10902555
-0.014622184
0.10875636
-0.015465373
0.10865199
-0.0162432
0.10870486
-0.016953962
0.10890665
-0.017596659
0.10924864
-0.018170962
0.10972188
-0.018677025
0.11031736
-0.019115421
0.11102605
-0.019487127
0.11183908
-0.019793505
0.11274777
-0.020036262
0.11374371
-0.020217422
0.11481882
-0.020339298
0.11596539
-0.020404462
0.11717612
-0.020415706
0.11844417
-0.020376014
0.11976311
-0.020288516
0.12112703
-0.02015646
0.12253047
-0.019983165
0.12396846
-0.019771988
0.1254365
-0.019526293
0.12693057
-0.019249413
0.12844709
-0.018944631
0.12998294
-0.018615155
0.13153543
-0.018264101
0.13310228
-0.017894494
0.13468162
-0.017509258
0.13627195
-0.017111238
0.13787216
-0.016703217
0.13948152
-0.016287973
0.1410997
-0.01586829
0.14272674
-0.015447278
0.14436311
-0.015027823
0.14600992
-0.014615281
0.14766849
-0.014210175
0.1493423
-0.013834434
0.15103209
-0.013452534
0.15275222
-0.0132324
0.15448651
-0.0127481
0.15631917
-0.013486321
-0.01164408
0.13689596
-0.0017555065
0.134378
-0.003532903
0.13181943
-0.0048265753
0.12946236
-0.0060757151
0.127334
-0.0074084674
0.12541573
-0.0087354946
0.12371037
-0.010022268
0.12222301
-0.011262042
0.12095211
-0.01244491
0.11989189
-0.013561961
0.11903484
-0.014608323
0.11837262
-0.015580978
0.11789623
-0.016477572
0.11759614
-0.017296574
0.11746249
-0.018037314
0.11748527
-0.018699803
0.11765446
-0.019284607
0.11796013
-0.019792802
0.11839256
-0.020225938
0.1189423
-0.020585996
0.11960021
-0.020875337
0.12035758
-0.021096669
0.12120613
-0.021253006
0.12213804
-0.021347614
0.123146
-0.021383982
0.12422325
-0.021365767
0.12536354
-0.021296748
0.12656117
-0.021180788
0.12781096
-0.021021787
0.12910831
-0.020823641
0.13044911
-0.02059021
0.13182977
-0.02032529
0.13324719
-0.020032581
0.13469877
-0.01971568
0.13618235
-0.019378067
0.1376962
-0.019023111
0.13923905
-0.018654085
0.14081001
-0.018274183
0.14240864
-0.017886598
0.14403487
-0.017494522
0.1456891
-0.017101508
0.14737214
-0.016710863
0.14908547
-0.016328609
0.15083079
-0.0159555
0.15261184
-0.015615485
0.15443012
-0.015270809
0.15629827
-0.015100552
0.1582061
-0.014655933
0.16021558
-0.015495795
-0.013658334
0.1500521
0.00077999474
0.14676315
-0.00024395768
0.14346581
-0.0015292371
0.14041804
-0.0030279367
0.13762314
-0.0046135741
0.13507488
-0.0061872308
0.13277508
-0.0077224691
0.13072383
-0.0092107925
0.12891869
-0.010639771
0.12735446
-0.011997731
0.12602331
-0.013277177
0.12491585
-0.014473509
0.12402188
-0.015583605
0.12333075
-0.016605447
0.12283148
-0.017538046
0.12251296
-0.018381283
0.12236412
-0.019135761
0.12237403
-0.019802717
0.12253205
-0.020383956
0.12282785
-0.020881795
0.12325152
-0.021299006
0.12379362
-0.021638765
0.12444521
-0.021904598
0.12519792
-0.022100327
0.12604396
-0.022230021
0.12697613
-0.022297934
0.12798784
-0.022308462
0.12907313
-0.022266081
0.13022665
-0.022175306
0.13144365
-0.022040638
0.13271997
-0.021866531
0.13405203
-0.021657354
0.13543682
-0.021417365
0.13687183
-0.021150694
0.1383551
-0.020861334
0.13988513
-0.020553144
0.14146092
-0.020229869
0.14308189
-0.01989516
0.14474796
-0.01955266
0.14645944
-0.019206004
0.14821715
-0.018859223
0.15002235
-0.018516064
0.15187699
-0.018183245
0.15378325
-0.017861756
0.15574525
-0.017577487
0.15776518
-0.017290743
0.15985458
-0.01718995
0.16200768
-0.016809039
0.16426924
-0.017757348
-0.015970187
0.18890879
0.0053820964
-0.19351089
0.18509875
0.0035660798
0.18170672
0.001862797
0.17856159
0.00011718874
0.17562603
-0.0016780153
0.17287501
-0.0034362057
0.17029029
-0.0051377535
0.16786289
-0.006783393
0.16558893
-0.0083658072
0.16346624
-0.0098750464
0.16149298
-0.011303912
0.15966702
-0.012647553
0.15798573
-0.013902315
0.15644582
-0.015065533
0.15504336
-0.016135586
0.15377388
-0.017111808
0.15263247
-0.017994345
0.15161382
-0.018784065
0.15071235
-0.019482491
0.1499223
-0.02009174
0.14923775
-0.020614463
0.14865277
-0.021053783
0.14816141
-0.021413233
0.14775778
-0.0216967
0.14743612
-0.021908361
0.14719081
-0.022052624
0.14701642
-0.022134069
0.14690772
-0.022157388
0.14685975
-0.022127333
0.14686777
-0.02204866
0.14692733
-0.02192609
0.14703424
-0.021764268
0.14718461
-0.021567736
0.14737483
-0.021340907
0.14760156
-0.021088062
0.14786175
-0.020813343
0.14815267
-0.02052078
0.14847182
-0.020214313
0.14881703
-0.019897875
0.14918643
-0.019575397
0.14957844
-0.019251237
0.14999184
-0.018929461
0.15042585
-0.018617256
0.15087995
-0.018315857
0.15135476
-0.018052295
0.15185012
-0.017786107
0.15237052
-0.017710348
0.15291165
-0.017350166
0.15349647
-0.018342168
-0.016562807
0.21685768
0.0087804278
-0.22025601
0.21338379
0.0070399676
0.21017098
0.0050756098
0.20706566
0.0032225024
0.20401907
0.0013685812
0.20106215
-0.00047928456
0.19821178
-0.0022873908
0.19547249
-0.0040441013
0.19285017
-0.005743487
0.19035165
-0.0073765294
0.18798214
-0.0089343979
0.18574503
-0.010410439
0.18364231
-0.011799596
0.18167468
-0.013097908
0.17984162
-0.01430252
0.17814148
-0.015411675
0.17657174
-0.016424599
0.17512906
-0.01734139
0.17380951
-0.018162937
0.17260862
-0.018890851
0.17152155
-0.019527394
0.17054317
-0.020075401
0.16966815
-0.020538216
0.16889106
-0.020919615
0.16820644
-0.02122374
0.16760885
-0.021455025
0.16709291
-0.021618135
0.16665341
-0.021717889
0.16628529
-0.021759209
0.16598368
-0.021747052
0.16574396
-0.021686366
0.16556173
-0.021582045
0.16543289
-0.02143889
0.16535357
-0.021261589
0.16532021
-0.021054701
0.16532952
-0.020822656
0.16537851
-0.020569774
0.16546449
-0.020300287
0.16558505
-0.020018432
0.1657381
-0.019728452
0.1659219
-0.019435033
0.16613504
-0.019142602
0.16637652
-0.018858736
0.16664584
-0.018585179
0.16694285
-0.018349305
0.16726878
-0.018112038
0.16762285
-0.018064417
0.16801336
-0.017740678
0.16842227
-0.018751076
-0.017036624
0.2437666
0.011504381
-0.24649055
0.24091616
0.0098904056
0.23806295
0.0079288205
0.23521599
0.0060694648
0.23233818
0.0042463846
0.22945036
0.0024085362
0.22658375
0.00057922731
0.22375763
-0.0012179826
0.22098792
-0.0029737852
0.21829058
-0.0046791807
0.21567944
-0.0063232604
0.21316551
-0.0078965121
0.21075741
-0.0093914907
0.20846168
-0.010802183
0.20628297
-0.012123807
0.20422415
-0.013352856
0.20228658
-0.014487029
0.2004703
-0.015525109
0.19877422
-0.01646686
0.19719632
-0.017312948
0.19573377
-0.018064849
0.19438314
-0.018724766
0.19314046
-0.019295542
0.19200142
-0.019780574
0.19096142
-0.020183733
0.19001567
-0.020509281
0.18915933
-0.020761789
0.1883875
-0.020946062
0.18769536
-0.021067069
0.18707817
-0.021129868
0.18653136
-0.021139554
0.18605052
-0.021101204
0.18563147
-0.021019834
0.18527025
-0.020900371
0.18496318
-0.020747629
0.18470683
-0.020566311
0.18449808
-0.020361018
0.18433407
-0.020136279
0.18421227
-0.019896633
0.18413046
-0.019646645
0.18408676
-0.019391332
0.18407968
-0.019135516
0.18410802
-0.018887079
0.18417138
-0.018648538
0.18426885
-0.018446777
0.18440315
-0.018246335
0.18456787
-0.018229144
0.18478492
-0.017957721
0.18499037
-0.018956531
-0.017369185
0.26927437
0.013537334
-0.27130732
0.26710632
0.01205845
0.26476456
0.010270582
0.26232534
0.0085086906
0.25979659
0.0067751348
0.25718849
0.0050166314
0.25452717
0.0032405453
0.2518368
0.0014723855
0.24913738
-0.00027436465
0.24644872
-0.0019905126
0.24379009
-0.0036646349
0.24117864
-0.0052850646
0.2386291
-0.0068419479
0.23615395
-0.0083270341
0.23376349
-0.0097333473
0.23146588
-0.011055246
0.2292673
-0.012288452
0.22717216
-0.013429961
0.22518324
-0.014477941
0.22330194
-0.015431652
0.22152844
-0.016291352
0.21986188
-0.0170582
0.2183005
-0.017734163
0.21684185
-0.01832192
0.21548287
-0.018824763
0.2142201
-0.019246504
0.21304969
-0.019591383
0.21196761
-0.019863981
0.21096967
-0.020069129
0.21005164
-0.020211835
0.2092093
-0.020297212
0.20843851
-0.020330416
0.20773526
-0.020316591
0.20709573
-0.020260834
0.20651627
-0.020168168
0.20599348
-0.020043529
0.20552424
-0.019891775
0.20510568
-0.019717715
0.20473522
-0.019526182
0.20441064
-0.019322065
0.20413001
-0.019110702
0.20389184
-0.018897338
0.20369484
-0.018690083
0.20353873
-0.018492423
0.20342202
-0.018330067
0.20334862
-0.018172942
0.20330736
-0.018187883
0.20333146
-0.017981814
0.2033157
-0.018940772
-0.017538307
0.29298514
0.014868475
-0.29431628
0.2915059
0.013537692
0.2897834
0.011993074
0.28788477
0.010407324
0.28584486
0.0088150452
0.28367449
0.0071870031
0.28139207
0.0055229669
0.27902084
0.0038436141
0.2765821
0.0021643684
0.27409603
0.00049556286
0.27158281
-0.0011514177
0.26906218
-0.00276443
0.26655245
-0.0043322195
0.26407022
-0.0058448035
0.26163023
-0.0072933537
0.25924523
-0.0086702542
0.256926
-0.0099692227
0.25468135
-0.011185312
0.25251827
-0.012314854
0.25044202
-0.013355402
0.24845632
-0.014305659
0.24656352
-0.015165393
0.2447647
-0.015935346
0.24305991
-0.016617131
0.24144828
-0.017213137
0.2399282
-0.017726421
0.23849743
-0.018160614
0.23715326
-0.018519811
0.23589262
-0.018808487
0.23471218
-0.019031394
0.23360846
-0.019193493
0.23257791
-0.019299867
0.23161699
-0.019355667
0.23072222
-0.019366061
0.22989024
-0.019336193
0.22911788
-0.01927117
0.22840217
-0.019176062
0.22774037
-0.019055919
0.22713004
-0.018915847
0.22656902
-0.018761044
0.22605547
-0.018597154
0.22558798
-0.01842985
0.22516531
-0.018267416
0.22478731
-0.018114418
0.22445214
-0.017994893
0.22416454
-0.017885346
0.22390969
-0.017933032
0.22372913