/*--------------------------------*- C++ -*----------------------------------*\
  =========                 |
  \\      /  F ield         | OpenFOAM: The Open Source CFD Toolbox
   \\    /   O peration     | Website:  https://openfoam.org
    \\  /    A nd           | Version:  6
     \\/     M anipulation  |
\*---------------------------------------------------------------------------*/
FoamFile
{
    version     2.0;
    format      ascii;
    class       volScalarField;
    location    "185";
    object      pPrime2Mean;
}
// * * * * * * * * * * * * * * * * * * * * * * * * * * * * * * * * * * * * * //

dimensions      [0 4 -4 0 0 0 0];

internalField   nonuniform List<scalar> 
9200
(
0.060749205
0.050355145
0.041555409
0.035826952
0.03125479
0.027401374
0.024076463
0.021183057
0.018656595
0.016445369
0.014506552
0.012804243
0.011308131
0.0099924636
0.0088352609
0.0078177278
0.0069239564
0.006140681
0.0054580817
0.0048634224
0.049259038
0.040752654
0.033639254
0.028964026
0.025213467
0.022043304
0.019304069
0.016919528
0.014838338
0.013019105
0.01142726
0.010033558
0.008813049
0.0077442843
0.0068087158
0.0059902615
0.0052750748
0.0046512276
0.0041076316
0.0036284897
0.038485331
0.031794483
0.026264718
0.022581263
0.019602714
0.017072951
0.014881562
0.012972396
0.011307101
0.0098542952
0.0085872531
0.0074828634
0.0065209446
0.0056837423
0.0049555708
0.0043225754
0.0037725939
0.0032948971
0.0028787237
0.002509949
0.028727025
0.023722173
0.019625655
0.01684418
0.014566839
0.012617685
0.010922558
0.0094441448
0.0081563513
0.0070370006
0.0060663402
0.0052265145
0.0045013019
0.0038759725
0.0033372266
0.0028731717
0.0024732916
0.0021282709
0.0018289194
0.0015645431
0.020253465
0.016752834
0.013900561
0.011906871
0.010241653
0.0087988587
0.0075367155
0.0064348888
0.0054782202
0.0046524163
0.0039434286
0.0033375368
0.00282159
0.0023832679
0.0020113106
0.0016956732
0.0014275707
0.0011993726
0.001004017
0.00083433267
0.013302016
0.011075643
0.0092477493
0.0079071414
0.0067495206
0.0057267309
0.0048244959
0.0040368881
0.0033577458
0.002778881
0.00229042
0.0018815857
0.0015414721
0.0012596745
0.001026729
0.00083435142
0.00067548717
0.00054422073
0.00043553538
0.00034500941
0.0080711498
0.0068473228
0.0058018398
0.0049635208
0.0041967009
0.0034978917
0.0028744425
0.0023315676
0.0018696494
0.0014845613
0.0011690281
0.00091412174
0.00071050501
0.00054930907
0.00042265314
0.00032386212
0.00024745962
0.00018905342
0.00014527671
0.00011355956
0.0047153787
0.0041890206
0.0036712684
0.0031729356
0.0026709785
0.0021926773
0.001760311
0.0013864396
0.0010752535
0.00082461791
0.00062841577
0.00047865929
0.00036704145
0.00028589562
0.00022866416
0.00019001921
0.00016577117
0.00015271836
0.00014864147
0.00015204976
0.0033409558
0.0031829156
0.0029337808
0.0026058357
0.0022371894
0.0018714385
0.001538171
0.0012530098
0.0010211212
0.00084048795
0.0007050138
0.00060700043
0.00053876928
0.00049353351
0.00046572538
0.00045099342
0.00044603646
0.00044842483
0.00045655839
0.00046939193
0.0040012517
0.0038694378
0.0036316069
0.0033015399
0.0029328072
0.0025699689
0.0022415461
0.0019617947
0.0017342556
0.0015555549
0.0014188307
0.0013162285
0.0012403511
0.001184913
0.0011449019
0.0011164709
0.0010967321
0.0010835618
0.0010754587
0.0010712805
0.1442772
0.12133918
0.10028059
0.086965057
0.076392805
0.06751928
0.05987988
0.053223951
0.047396321
0.042275034
0.037760454
0.033770093
0.030234859
0.027096343
0.02430481
0.021817664
0.019598246
0.017613726
0.015833281
0.014239087
0.1424391
0.1196758
0.098858504
0.085696008
0.075256272
0.066495924
0.05895447
0.052385383
0.046635273
0.04158336
0.037130952
0.033196359
0.029711174
0.026617588
0.023866399
0.021415494
0.019228694
0.017273651
0.015519368
0.013948638
0.13868992
0.11638257
0.096086633
0.08325162
0.07308319
0.064552265
0.057208264
0.050812391
0.045215286
0.040299075
0.035967375
0.032140378
0.028751253
0.025743538
0.023069191
0.02068713
0.018562156
0.016662878
0.014958405
0.01343185
0.13309522
0.11153951
0.092045081
0.079707786
0.069942275
0.06175053
0.054698241
0.04855753
0.043185078
0.038467548
0.034312176
0.030642087
0.027392886
0.024510163
0.021947633
0.019665722
0.017630604
0.015812273
0.014180456
0.012718082
0.12580782
0.10528407
0.086850932
0.075169232
0.06592749
0.05817545
0.051501362
0.045691095
0.040609158
0.036148211
0.032220297
0.028752455
0.025683516
0.022961775
0.020543239
0.018390271
0.016470705
0.014756244
0.013218091
0.011838759
0.11703539
0.097798305
0.080656025
0.069769757
0.061158048
0.053933837
0.047713758
0.042299894
0.037566132
0.033412412
0.029756641
0.026530625
0.023677136
0.021147764
0.018901286
0.016902381
0.015120765
0.013530006
0.01210375
0.010824597
0.10703003
0.089300498
0.073640073
0.063666256
0.055773036
0.049149778
0.043446497
0.038483504
0.034145409
0.030340515
0.026993486
0.024041649
0.021432351
0.019121012
0.017069629
0.015245559
0.013620624
0.012170274
0.010871301
0.009707507
0.096079152
0.080037465
0.066004886
0.057033886
0.049927111
0.043960732
0.038822089
0.034351244
0.030444599
0.027019695
0.024008693
0.021355079
0.019011332
0.016937189
0.0150983
0.013465094
0.01201183
0.010715946
0.0095577995
0.0085234979
0.084495067
0.070275345
0.057967088
0.050059685
0.043784801
0.038512503
0.033970062
0.030018234
0.026566015
0.023540872
0.020883048
0.018542704
0.016477908
0.014653137
0.013038085
0.011606644
0.010335979
0.0092059615
0.0082010012
0.0073095764
0.072603678
0.060292168
0.049750411
0.042934448
0.037512618
0.032951808
0.029020131
0.025599338
0.022611517
0.019994505
0.017697002
0.015676161
0.013895915
0.01232572
0.01093957
0.0097151846
0.0086333812
0.007677979
0.0068387926
0.0061047625
0.012557234
0.010880459
0.0094586775
0.0082242992
0.0071697842
0.0062665045
0.0054896234
0.0048178376
0.0042338291
0.0037235352
0.0032755681
0.0028808036
0.0025319161
0.0022229462
0.0019489778
0.0017059024
0.0014902388
0.0012989969
0.0011295781
0.00097970079
0.00084734312
0.0007307
0.00062814915
0.0005382249
0.00045959794
0.00039105946
0.0003315087
0.00027994295
0.00023544948
0.00019719875
0.00016443863
0.00013648916
0.00011273787
9.2635164e-05
7.5690081e-05
6.1465953e-05
4.9576418e-05
3.9681123e-05
3.1482216e-05
2.471951e-05
1.9169339e-05
1.4634316e-05
1.0957832e-05
7.9758647e-06
5.6252439e-06
3.6873782e-06
2.3499558e-06
1.0783792e-06
1.4253957e-06
2.340776e-06
0.012313456
0.010692396
0.0093113598
0.0081082853
0.0070794746
0.0061969421
0.0054361019
0.0047764578
0.0042015794
0.0036981097
0.0032552495
0.0028643597
0.0025184727
0.0022118747
0.0019398161
0.0016983014
0.0014839268
0.0012937565
0.0011252316
0.00097610076
0.00084436627
0.00072824273
0.00062612432
0.00053655925
0.00045822997
0.0003899377
0.00033059017
0.00027919189
0.00023483619
0.00019669867
0.00016403147
0.00013615822
0.00011246939
9.2417848e-05
7.5514656e-05
6.1324808e-05
4.9463307e-05
3.9590921e-05
3.141072e-05
2.4663274e-05
1.9125539e-05
1.4600652e-05
1.0932428e-05
7.9572306e-06
5.6121607e-06
3.6789034e-06
2.3455023e-06
1.075765e-06
1.416755e-06
2.2952409e-06
0.011884377
0.010363596
0.0090563212
0.0079106794
0.0069280466
0.0060821199
0.0053490853
0.0047100565
0.0041503639
0.003658047
0.0032234139
0.0028386969
0.0024975524
0.0021946837
0.0019256169
0.0016865408
0.0014741762
0.0012856736
0.001118537
0.00097056296
0.00083979197
0.0007244697
0.00062301635
0.00053400216
0.00045612823
0.00038821161
0.00032917352
0.00027802981
0.0002338834
0.00019591784
0.00016339196
0.00013563487
0.0001120416
9.2068711e-05
7.5230322e-05
6.1093904e-05
4.9276483e-05
3.9440477e-05
3.1290302e-05
2.4567639e-05
1.9050355e-05
1.4542349e-05
1.088808e-05
7.9244682e-06
5.589068e-06
3.6639094e-06
2.3377474e-06
1.0711859e-06
1.3994951e-06
2.2063064e-06
0.011296311
0.0099143159
0.0087118143
0.007649142
0.0067312575
0.0059350501
0.0052388953
0.0046265898
0.0040861957
0.0036078978
0.0031835759
0.0028066039
0.0024714262
0.0021732621
0.0019079742
0.0016719759
0.0014621419
0.0012757315
0.0011103291
0.00096379352
0.00083421474
0.00071987914
0.00061924083
0.00053089864
0.0004535778
0.00038611577
0.00032745089
0.00027661343
0.00023271833
0.00019495914
0.00016260289
0.00013498547
0.00011150741
9.1629765e-05
7.4870262e-05
6.0799318e-05
4.9036322e-05
3.9245615e-05
3.1133173e-05
2.4441954e-05
1.8950883e-05
1.4464737e-05
1.0828729e-05
7.8804401e-06
5.5579576e-06
3.6437444e-06
2.3273469e-06
1.0652135e-06
1.3736159e-06
2.0785427e-06
0.010575213
0.0093652332
0.0082966541
0.0073416798
0.0065049321
0.0057682955
0.0051149952
0.0045330545
0.0040142381
0.0035515569
0.003138801
0.0027706007
0.0024422317
0.0021494583
0.0018885012
0.0016560177
0.0014490548
0.0012649989
0.0011015306
0.00095658372
0.00082830911
0.00071504261
0.00061527928
0.00052765212
0.00045091491
0.00038392888
0.00032565217
0.00027513146
0.00023149515
0.00019394788
0.00016176566
0.00013429165
0.00011093222
9.1153122e-05
7.4475798e-05
6.0473631e-05
4.8768367e-05
3.9026236e-05
3.0954729e-05
2.429804e-05
1.8836113e-05
1.4374574e-05
1.0759381e-05
7.8287761e-06
5.5213498e-06
3.6201071e-06
2.3151026e-06
1.058578e-06
1.3393744e-06
1.918657e-06
0.0097433514
0.0087351864
0.0078278481
0.007002981
0.0062606577
0.0055899217
0.0049825914
0.0044329014
0.0039370063
0.0034910628
0.0030908908
0.0027323582
0.0024115377
0.0021247353
0.001868546
0.0016398921
0.0014360164
0.0012544542
0.0010930014
0.00094968299
0.00082272276
0.00071051568
0.00061160502
0.00052466325
0.0004484766
0.00038193288
0.00032401188
0.00027377787
0.00023037348
0.00019301471
0.00016098664
0.00013363958
0.00011038549
9.0694459e-05
7.4091309e-05
6.015202e-05
4.850033e-05
3.8804029e-05
3.0771824e-05
2.4148885e-05
1.8715957e-05
1.4279336e-05
1.068558e-05
7.7734994e-06
5.4820251e-06
3.594859e-06
2.3018537e-06
1.052057e-06
1.297187e-06
1.7347907e-06
0.0088224926
0.0080430414
0.0073205625
0.0066419468
0.0060022494
0.0054006916
0.0048410886
0.0043254704
0.0038544201
0.0034269765
0.003040872
0.0026931802
0.002380774
0.0021005388
0.0018494981
0.0016248915
0.0014242013
0.0012451469
0.0010856671
0.00094389864
0.00081815337
0.00070689642
0.000608727
0.00052236232
0.00044662444
0.00038042978
0.00032278087
0.00027275996
0.00022952369
0.00019229896
0.0001603792
0.00013312102
0.00010994109
9.0312974e-05
7.3763972e-05
5.9871863e-05
4.8261649e-05
3.8602024e-05
3.0602341e-05
2.4008256e-05
1.8600904e-05
1.4186909e-05
1.0613144e-05
7.7188033e-06
5.4428497e-06
3.5698938e-06
2.2884101e-06
1.0464002e-06
1.2476208e-06
1.5357551e-06
0.0078397012
0.0073103439
0.0067864367
0.0062573401
0.0057217496
0.0051922816
0.0046843342
0.0042071161
0.0037649846
0.0033593436
0.0029897122
0.0026544989
0.0023515523
0.0020784895
0.0018328897
0.0016124104
0.0014148475
0.0012381568
0.0010804571
0.00094002238
0.00081526989
0.00070474612
0.0006071133
0.00052113752
0.00044567873
0.00037968261
0.00032217416
0.00027225264
0.00022908745
0.00019191486
0.00016003502
0.00013280924
0.00010965731
9.0054764e-05
7.3530065e-05
5.9661557e-05
4.8074418e-05
3.8437298e-05
3.0459382e-05
2.3886118e-05
1.8498454e-05
1.4102865e-05
1.0546133e-05
7.667574e-06
5.4057368e-06
3.5464496e-06
2.2751517e-06
1.0420938e-06
1.1913248e-06
1.3304018e-06
0.0068217145
0.0065465254
0.0062134001
0.0058213744
0.0053889417
0.0049400395
0.0044944426
0.0040651148
0.0036595066
0.0032814005
0.0029323214
0.0026123734
0.0023207406
0.0020560489
0.0018166337
0.0016007161
0.0014065086
0.0012322749
0.001076362
0.00093721419
0.00081337617
0.00070349067
0.00060629285
0.00052060426
0.00044532697
0.00037943856
0.00032198801
0.00027209229
0.00022893374
0.00019175775
0.0001598707
0.00013263789
0.00010948147
8.9878156e-05
7.3356714e-05
5.9495269e-05
4.7918444e-05
3.8294177e-05
3.0330888e-05
2.3773299e-05
1.8401732e-05
1.4022144e-05
1.0480898e-05
7.6172549e-06
5.3689094e-06
3.5233673e-06
2.2611027e-06
1.0388583e-06
1.1292255e-06
1.1278124e-06
0.0058084305
0.0057282416
0.005547413
0.0052838494
0.0049653885
0.0046148167
0.0042488275
0.0038814656
0.0035232652
0.003180999
0.0028587018
0.0025586045
0.0022816244
0.0020277246
0.001796244
0.0015861506
0.0013962084
0.0012250864
0.0010714293
0.00093390147
0.00081121126
0.00070212383
0.00060546671
0.0005201314
0.00044507313
0.0003793098
0.00032192069
0.00027204539
0.00022888274
0.00019168991
0.00015978132
0.00013252755
0.00010935389
8.973862e-05
7.3211019e-05
5.9348982e-05
4.777645e-05
3.8160461e-05
3.0208451e-05
2.3664185e-05
1.8307149e-05
1.3942575e-05
1.041624e-05
7.567229e-06
5.3321135e-06
3.5004251e-06
2.2461223e-06
1.0364249e-06
1.0636785e-06
9.3749713e-07
0.004705582
0.0047391589
0.0046826225
0.0045419299
0.0043438412
0.0041049609
0.0038366845
0.0035515163
0.0032610033
0.0029736478
0.0026953346
0.0024301415
0.0021806968
0.0019484403
0.0017339362
0.0015371477
0.001357634
0.0011946917
0.0010474572
0.0009149778
0.00079626024
0.00069030199
0.00059611169
0.00051272241
0.00043920025
0.00037465015
0.00031821988
0.00026910296
0.00022654075
0.00018982391
0.00015829325
0.00013134013
0.00010840613
8.8982361e-05
7.2608126e-05
5.8869196e-05
4.7395685e-05
3.7859483e-05
2.9971839e-05
2.347957e-05
1.8164522e-05
1.3834033e-05
1.033504e-05
7.5089906e-06
5.2909256e-06
3.476767e-06
2.22858e-06
1.035132e-06
9.9563811e-07
7.7004518e-07
0.0036469551
0.00374252
0.003763363
0.003710112
0.0036043307
0.0034581422
0.003278227
0.0030741894
0.0028563444
0.0026328217
0.0024096963
0.0021916532
0.0019821518
0.0017835265
0.0015972141
0.0014239847
0.0012641174
0.0011175339
0.00098390421
0.00086272714
0.00075338847
0.00065520304
0.00056744492
0.00048936911
0.00042022755
0.00035928088
0.00030580747
0.00025911043
0.00021852306
0.00018341311
0.00015318596
0.00012728689
0.00010520249
8.6461248e-05
7.0633471e-05
5.7330549e-05
4.6203685e-05
3.694209e-05
2.927115e-05
2.2949286e-05
1.7767573e-05
1.3541345e-05
1.012271e-05
7.3603147e-06
5.1880389e-06
3.4154876e-06
2.1846262e-06
1.0252294e-06
9.091832e-07
6.1104695e-07
0.0027367362
0.0028726905
0.0029476258
0.0029616945
0.0029282967
0.002856282
0.0027497116
0.0026153982
0.00246182
0.0022962319
0.0021244012
0.0019511088
0.0017802078
0.0016145924
0.0014563216
0.0013067914
0.0011668745
0.0010370337
0.00091741907
0.0008079474
0.0007083647
0.00061829356
0.0005372697
0.00046477002
0.00040023425
0.00034308186
0.00029272543
0.00024858141
0.00021007866
0.00017666538
0.00014781459
0.00012302824
0.0001018403
8.3818732e-05
6.8566629e-05
5.5722502e-05
4.4959913e-05
3.5986444e-05
2.8542482e-05
2.2398767e-05
1.735615e-05
1.3238471e-05
9.9032225e-06
7.2068783e-06
5.0814942e-06
3.3525066e-06
2.1372431e-06
1.016622e-06
8.1542019e-07
4.6197164e-07
0.0019717973
0.0021284313
0.002236593
0.0022974396
0.0023171379
0.0023015718
0.0022533809
0.0021769946
0.0020786957
0.0019644538
0.0018393534
0.0017078543
0.0015737981
0.001440301
0.001309778
0.0011840457
0.0010644187
0.0009517927
0.00084672337
0.0007494969
0.00066018873
0.00057871138
0.00050485327
0.00043831
0.00037870969
0.00032563347
0.00027863224
0.00023724042
0.00020098724
0.00016940605
0.0001420418
0.0001184571
9.823681e-05
8.0991441e-05
6.6359523e-05
5.4008948e-05
4.3637538e-05
3.4972834e-05
2.7771533e-05
2.1817758e-05
1.6923004e-05
1.2920315e-05
9.6730848e-06
7.0461291e-06
4.9697107e-06
3.2861618e-06
2.0860997e-06
1.0077348e-06
7.2110374e-07
3.3459302e-07
0.001356626
0.0015137946
0.0016359257
0.0017239107
0.0017785255
0.0018027601
0.001798172
0.0017673363
0.0017143885
0.0016437839
0.0015596614
0.0014658605
0.0013658832
0.0012627596
0.0011589997
0.001056626
0.00095722435
0.00086199323
0.000771798
0.00068722508
0.00060863138
0.00053618727
0.00046991338
0.00040971203
0.00035539358
0.00030669877
0.00026331736
0.000224904
0.00019109153
0.0001615021
0.00013575648
0.00011348164
9.4316847e-05
7.7918394e-05
6.3963096e-05
5.2150739e-05
4.2205566e-05
3.3876912e-05
2.6939325e-05
2.1191593e-05
1.6456908e-05
1.2578351e-05
9.4259295e-06
6.873287e-06
4.8493281e-06
3.2137675e-06
2.0299111e-06
9.9686534e-07
6.3008676e-07
2.3507766e-07
0.00088547324
0.0010270789
0.0011470023
0.0012449281
0.0013181937
0.0013672294
0.0013924546
0.0013949868
0.0013771191
0.001341777
0.0012920075
0.0012308423
0.0011612149
0.001085826
0.0010070517
0.00092691939
0.00084711584
0.00076900401
0.00069365026
0.00062185823
0.00055420446
0.00049107222
0.0004326828
0.00037912367
0.00033037353
0.00028632429
0.00024680019
0.00021157447
0.0001803838
0.00015294062
0.00012894366
0.00010808684
9.0066509e-05
7.4587359e-05
6.1366994e-05
5.0139363e-05
4.0657161e-05
3.2693288e-05
2.6041674e-05
2.0517046e-05
1.5955387e-05
1.2210656e-05
9.1602695e-06
6.6870998e-06
4.7194346e-06
3.1342871e-06
1.968463e-06
9.827929e-07
5.4551713e-07
1.6554406e-07
0.0005430597
0.00065926714
0.00076532876
0.00085970235
0.00093804807
0.0009989489
0.0010417121
0.0010662804
0.0010734837
0.0010648705
0.0010423806
0.001008157
0.0009644326
0.00091340881
0.0008571484
0.00079751296
0.00073613479
0.00067440644
0.00061348284
0.00055429419
0.00049756522
0.00044383725
0.00039349093
0.00034676873
0.00030379617
0.00026460153
0.00022913384
0.00019727905
0.00016887452
0.0001437218
0.00012159782
0.00010226446
8.5476761e-05
7.0989667e-05
5.856352e-05
4.7968351e-05
3.898711e-05
3.1417905e-05
2.5075505e-05
1.9791837e-05
1.5416767e-05
1.1815985e-05
8.8751775e-06
6.4867827e-06
4.5794972e-06
3.0470013e-06
1.9018845e-06
9.6441697e-07
4.6977861e-07
1.2425778e-07
0.00030965513
0.00039632395
0.00048161148
0.00056321166
0.00063641371
0.00069878129
0.00074876276
0.00078541034
0.00080847186
0.00081837381
0.00081604858
0.00080276982
0.00078003491
0.0007494566
0.00071266274
0.00067121927
0.00062657676
0.00058003775
0.00053273919
0.00048564663
0.00043955734
0.00039510939
0.00035279436
0.00031297215
0.00027588666
0.00024168156
0.00021041552
0.00018207675
0.00015659641
0.00013386094
0.00011372318
9.6012206e-05
8.0541878e-05
6.7118198e-05
5.5545421e-05
4.5631034e-05
3.7189674e-05
3.0046056e-05
2.4037105e-05
1.9013122e-05
1.4838924e-05
1.1392769e-05
8.5695155e-06
6.2714609e-06
4.4289705e-06
2.9513076e-06
1.8304485e-06
9.408794e-07
4.041977e-07
1.0604196e-07
0.00016460011
0.00022172516
0.0002833846
0.00034702178
0.00040833428
0.00046456713
0.00051370156
0.0005542251
0.00058516564
0.00060612732
0.00061721987
0.00061894862
0.00061211781
0.00059774221
0.00057696068
0.00055096105
0.00052091977
0.0004879551
0.00045309477
0.00041725601
0.00038123499
0.00034570376
0.00031121263
0.00027819649
0.00024698387
0.00021780747
0.00019081558
0.00016608371
0.00014362603
0.00012340638
0.00010534854
8.9345735e-05
7.5269054e-05
6.2974986e-05
5.2311839e-05
4.3125153e-05
3.5262127e-05
2.8575092e-05
2.2924171e-05
1.8179047e-05
1.4220452e-05
1.0939993e-05
8.2425918e-06
6.0406715e-06
4.2676592e-06
2.8470357e-06
1.7547e-06
9.1184919e-07
3.4913842e-07
1.0357048e-07
8.8377641e-05
0.0001185842
0.00015678221
0.0002005436
0.00024633574
0.00029156058
0.00033411737
0.00037225695
0.00040461633
0.00043027696
0.00044875551
0.0004599486
0.0004640699
0.00046158745
0.00045315862
0.00043956576
0.00042165907
0.00040030836
0.00037636328
0.00035062373
0.00032381957
0.00029659771
0.00026951537
0.0002430383
0.00021754285
0.00019332076
0.00017058593
0.00014948239
0.00013009296
0.00011244815
9.6534944e-05
8.2305291e-05
6.968397e-05
5.8575787e-05
4.8871977e-05
4.0455756e-05
3.3207011e-05
2.700614e-05
2.1737116e-05
1.7289726e-05
1.3561393e-05
1.0457739e-05
7.8945656e-06
5.7946614e-06
4.0959295e-06
2.7345979e-06
1.6754771e-06
8.7761488e-07
3.0423249e-07
1.0914238e-07
6.3819391e-05
7.1126023e-05
8.7982931e-05
0.00011230428
0.00014142
0.00017314593
0.00020558217
0.00023701588
0.00026596833
0.0002912662
0.00031206732
0.00032784704
0.00033836954
0.00034365286
0.0003439274
0.00033958955
0.00033115483
0.00031921452
0.00030439739
0.00028733686
0.00026864495
0.000248893
0.00022859802
0.00020821419
0.00018812858
0.00016866031
0.00015006249
0.00013252611
0.00011618534
0.0001011238
8.7381326e-05
7.4960872e-05
6.3835303e-05
5.3953874e-05
4.524821e-05
3.7637668e-05
3.1034045e-05
2.5345558e-05
2.0480139e-05
1.6348014e-05
1.2863782e-05
9.9475577e-06
7.526697e-06
5.534547e-06
3.9148061e-06
2.6150339e-06
1.5938814e-06
8.3905746e-07
2.6864796e-07
1.1635535e-07
7.6587773e-05
6.5488629e-05
6.4170693e-05
7.0965816e-05
8.4008831e-05
0.00010162059
0.00012225743
0.00014442674
0.00016673717
0.00018797474
0.00020714565
0.00022348887
0.00023647419
0.00024579179
0.00025133313
0.00025316391
0.00025149226
0.0002466352
0.00023898632
0.00022898585
0.00021709401
0.00020376883
0.00018944861
0.00017453872
0.00015940247
0.00014435546
0.00012966301
0.00011554001
0.00010215281
8.9622447e-05
7.8029044e-05
6.7416722e-05
5.7798928e-05
4.916378e-05
4.1479267e-05
3.4698118e-05
2.8762228e-05
2.3606549e-05
1.9162435e-05
1.5360373e-05
1.2132245e-05
9.4128619e-06
7.1415854e-06
5.2624309e-06
3.7260089e-06
2.4899552e-06
1.5111842e-06
7.974716e-07
2.4125076e-07
1.2112428e-07
0.00011516329
9.0027925e-05
7.407031e-05
6.602459e-05
6.4700832e-05
6.8910657e-05
7.7514495e-05
8.9332154e-05
0.00010318488
0.00011796725
0.00013269471
0.00014652859
0.00015879074
0.00016897089
0.00017672569
0.00018186898
0.00018435534
0.00018425915
0.00018175134
0.00017707573
0.00017052603
0.00016242468
0.00015310438
0.00014289282
0.00013210051
0.00012101179
0.00010987862
9.8917e-05
8.8305545e-05
7.8185819e-05
6.866411e-05
5.9814231e-05
5.168103e-05
4.4284326e-05
3.7623019e-05
3.1679166e-05
2.642186e-05
2.1810799e-05
1.7799461e-05
1.4337824e-05
1.1374674e-05
8.859374e-06
6.7434413e-06
4.9815308e-06
3.5319904e-06
2.3614758e-06
1.4287558e-06
7.5435966e-07
2.2070077e-07
1.2181252e-07
0.0001705705
0.00013530557
0.0001081621
8.8215502e-05
7.4798447e-05
6.7143418e-05
6.4491077e-05
6.5992376e-05
7.0736512e-05
7.7812203e-05
8.6351361e-05
9.5556663e-05
0.00010472314
0.00011325561
0.00012067969
0.00012664526
0.00013092296
0.00013339537
0.00013404411
0.00013293424
0.00013019733
0.00012601429
0.00012059889
0.00011418276
0.00010700251
9.9288958e-05
9.1258715e-05
8.3108007e-05
7.5008603e-05
6.7105565e-05
5.9516598e-05
5.2332672e-05
4.5619638e-05
3.9420559e-05
3.3758519e-05
2.8639667e-05
2.4056321e-05
1.9989988e-05
1.6414173e-05
1.3296902e-05
1.0602936e-05
8.2956154e-06
6.3383952e-06
4.6963342e-06
3.3359833e-06
2.2321392e-06
1.3480118e-06
7.1122289e-07
2.0550914e-07
1.186127e-07
0.000235991
0.00019389249
0.00015867477
0.00012968026
0.00010661765
8.9049692e-05
7.6535685e-05
6.8528521e-05
6.4388164e-05
6.3429585e-05
6.4958112e-05
6.8293317e-05
7.2790589e-05
7.7861742e-05
8.2991885e-05
8.7750813e-05
9.1798785e-05
9.488728e-05
9.6855396e-05
9.7622636e-05
9.7178979e-05
9.5573224e-05
9.290052e-05
8.9289866e-05
8.48923e-05
7.987025e-05
7.4388335e-05
6.8605842e-05
6.2670877e-05
5.6716187e-05
5.0856494e-05
4.5187168e-05
3.9784036e-05
3.4704089e-05
2.9986885e-05
2.565642e-05
2.1723289e-05
1.8186965e-05
1.503807e-05
1.2260536e-05
9.833571e-06
7.7334286e-06
5.9348587e-06
4.4128151e-06
3.1421149e-06
2.1049217e-06
1.2704475e-06
6.6945579e-07
1.9417702e-07
1.1263044e-07
0.00030635888
0.00026008768
0.00021944417
0.00018396876
0.00015362097
0.00012820417
0.00010752204
9.1275865e-05
7.9066261e-05
7.0428271e-05
6.485715e-05
6.182575e-05
6.0802009e-05
6.1267907e-05
6.2737199e-05
6.4769961e-05
6.6983391e-05
6.9058848e-05
7.0745185e-05
7.1858563e-05
7.2279171e-05
7.1945446e-05
7.0846489e-05
6.901337e-05
6.6509947e-05
6.3423792e-05
5.9857675e-05
5.592192e-05
5.1727898e-05
4.7382724e-05
4.2985237e-05
3.8623165e-05
3.4371412e-05
3.0291289e-05
2.6430565e-05
2.2824124e-05
1.9495104e-05
1.6456315e-05
1.371184e-05
1.1258677e-05
9.0883481e-06
7.1884324e-06
5.5438714e-06
4.1386731e-06
2.9555586e-06
1.983297e-06
1.1977322e-06
6.3033155e-07
1.8540315e-07
1.0511679e-07
0.00037799195
0.00032961805
0.0002857053
0.00024593594
0.00021042218
0.00017913059
0.00015203791
0.00012903327
0.00010991207
9.4400352e-05
8.2171963e-05
7.2859062e-05
6.6063995e-05
6.1374003e-05
5.8376575e-05
5.6673533e-05
5.5893215e-05
5.5700435e-05
5.5803907e-05
5.5960929e-05
5.5979305e-05
5.5716734e-05
5.5078031e-05
5.4010623e-05
5.2498821e-05
5.0557352e-05
4.8224618e-05
4.5556098e-05
4.2618181e-05
3.9482708e-05
3.6222324e-05
3.2906779e-05
2.9600119e-05
2.6358777e-05
2.3230451e-05
2.025366e-05
1.7457861e-05
1.4863992e-05
1.2485312e-05
1.032844e-05
8.3944937e-06
6.6802734e-06
5.1793344e-06
3.8835265e-06
2.7826878e-06
1.871349e-06
1.1318518e-06
5.950807e-07
1.7831324e-07
9.7078583e-08
0.00044827791
0.00039935613
0.00035386398
0.00031158354
0.00027270816
0.0002373065
0.00020546775
0.00017721226
0.00015248092
0.00013115165
0.00011304971
9.7952509e-05
8.5595952e-05
7.568424e-05
6.7901262e-05
6.1922074e-05
5.7423909e-05
5.4096331e-05
5.1650133e-05
4.9824518e-05
4.8392307e-05
4.7163086e-05
4.5984349e-05
4.4740824e-05
4.3352242e-05
4.1769907e-05
3.9972393e-05
3.7960765e-05
3.5753648e-05
3.3382406e-05
3.0886701e-05
2.831055e-05
2.5699032e-05
2.3095647e-05
2.054036e-05
1.8068271e-05
1.5708854e-05
1.3485666e-05
1.1416451e-05
9.5135306e-06
7.784403e-06
6.2325114e-06
4.8579949e-06
3.6589511e-06
2.6311425e-06
1.7738562e-06
1.0752263e-06
5.6499287e-07
1.7258599e-07
8.9206961e-08
0.00051541885
0.00046707315
0.00042127688
0.00037788249
0.00033711544
0.00029910158
0.0002639954
0.00023190101
0.00020285973
0.00017686108
0.00015384842
0.00013371951
0.00011632862
0.00010149173
8.8993811e-05
7.8596843e-05
7.0048262e-05
6.3089547e-05
5.7464604e-05
5.2927414e-05
4.9248622e-05
4.6220782e-05
4.3662107e-05
4.1418691e-05
3.9365258e-05
3.7404575e-05
3.5465741e-05
3.3501606e-05
3.1485588e-05
2.9408153e-05
2.7273198e-05
2.5094548e-05
2.2892719e-05
2.0692075e-05
1.8518446e-05
1.6397231e-05
1.4351987e-05
1.2403477e-05
1.0569107e-05
8.8627154e-06
7.2946307e-06
5.8719762e-06
4.5990559e-06
3.4782639e-06
2.5097304e-06
1.6962853e-06
1.0307518e-06
5.4149637e-07
1.6842896e-07
8.1947138e-08
0.00057822824
0.0005312326
0.00048605497
0.00044259821
0.00040108867
0.00036167846
0.00032455314
0.00028986395
0.00025771539
0.00022817258
0.00020126397
0.00017697933
0.00015526888
0.00013604502
0.00011918607
0.00010454087
9.1934334e-05
8.1173583e-05
7.2054665e-05
6.4369238e-05
5.7911015e-05
5.2481576e-05
4.789535e-05
4.3983553e-05
4.0597005e-05
3.7607783e-05
3.4909777e-05
3.2418251e-05
3.006858e-05
2.7814346e-05
2.5624996e-05
2.3483261e-05
2.1382499e-05
1.9324129e-05
1.7315264e-05
1.5366627e-05
1.3490802e-05
1.1700838e-05
1.0009208e-05
8.4270947e-06
6.9639673e-06
5.6274416e-06
4.4232878e-06
3.3559545e-06
2.4280854e-06
1.6446231e-06
1.001718e-06
5.2616673e-07
1.664213e-07
7.557342e-08
0.00063597204
0.00059082205
0.00054689481
0.00050413075
0.00046273866
0.00042287697
0.00038473916
0.00034849725
0.00031429041
0.00028223009
0.00025240094
0.00022485763
0.00019962222
0.00017668364
0.00015599871
0.00013749404
0.00012106884
0.00010659862
9.3939732e-05
8.2934312e-05
7.3415631e-05
6.5213326e-05
5.8158434e-05
5.2087909e-05
4.6848489e-05
4.229975e-05
3.83163e-05
3.4789082e-05
3.1625847e-05
2.8750877e-05
2.6104085e-05
2.3639634e-05
2.1324226e-05
1.9135203e-05
1.7058594e-05
1.5087215e-05
1.3218925e-05
1.145507e-05
9.7991839e-06
8.2559474e-06
6.8304054e-06
5.5274566e-06
4.351516e-06
3.3066691e-06
2.3960164e-06
1.6249995e-06
9.9157891e-07
5.2064687e-07
1.6730821e-07
7.0236976e-08
0.00068824345
0.00064521692
0.000602937
0.0005613736
0.00052070859
0.00048109476
0.00044271903
0.00040575654
0.00037036087
0.0003366676
0.0003047945
0.00027483793
0.00024686952
0.00022093433
0.00019705014
0.00017520742
0.00015537005
0.00013747686
0.00012144409
0.00010716845
9.4530875e-05
8.3400521e-05
7.3639038e-05
6.5104768e-05
5.7656755e-05
5.1158338e-05
4.5480235e-05
4.0502984e-05
3.6118721e-05
3.2232269e-05
2.8761583e-05
2.5637618e-05
2.2803721e-05
2.0214645e-05
1.7835303e-05
1.5639375e-05
1.3607866e-05
1.1727696e-05
9.9903944e-06
8.3909426e-06
6.9268053e-06
5.5971722e-06
4.4023599e-06
3.3436531e-06
2.4224767e-06
1.6430524e-06
1.0035635e-06
5.2647231e-07
1.7181093e-07
6.5999964e-08
0.00073486564
0.00069407206
0.00065364999
0.00061359402
0.00057405539
0.00053517501
0.00049712512
0.00046007312
0.00042417354
0.0003895706
0.00035639797
0.00032477549
0.00029480568
0.00026657145
0.00024013435
0.00021553343
0.00019278449
0.00017188004
0.00015279007
0.00013546341
0.00011982979
0.00010580246
9.3281232e-05
8.2155799e-05
7.2309214e-05
6.3621321e-05
5.5972021e-05
4.9244207e-05
4.332629e-05
3.8114224e-05
3.3512997e-05
2.9437595e-05
2.5813444e-05
2.2576414e-05
1.967243e-05
1.7056792e-05
1.4693285e-05
1.2553157e-05
1.0614063e-05
8.8590161e-06
7.2754225e-06
5.8542415e-06
4.5892453e-06
3.476648e-06
2.5141452e-06
1.7030268e-06
1.040129e-06
5.4480714e-07
1.8047517e-07
6.2864032e-08
0.0007758087
0.00073722833
0.0006987282
0.0006603247
0.00062213833
0.00058429564
0.00054695054
0.00051025687
0.00047436198
0.00043940863
0.00040553462
0.00037286997
0.00034153378
0.00031163179
0.00028325441
0.00025647483
0.00023134756
0.00020790735
0.00018616867
0.00016612581
0.00014775353
0.00013100827
0.00011582993
0.00010214406
8.9864427e-05
7.8895814e-05
6.9136905e-05
6.048317e-05
5.2829591e-05
4.6073134e-05
4.0114894e-05
3.4861825e-05
3.0228063e-05
2.6135805e-05
2.2515791e-05
1.9307407e-05
1.6458491e-05
1.3924886e-05
1.1669817e-05
9.6631662e-06
7.8807025e-06
6.3033267e-06
4.9163427e-06
3.7089911e-06
2.6734438e-06
1.8064977e-06
1.1021976e-06
5.7606296e-07
1.9352468e-07
6.0786505e-08
0.0008111339
0.00077464837
0.00073801992
0.00070128544
0.00066453648
0.00062788502
0.000591466
0.00055541733
0.00051987508
0.00048497477
0.0004508509
0.0004176348
0.0003854519
0.00035441962
0.00032464524
0.00029622396
0.00026923699
0.00024374999
0.00021981172
0.00019745331
0.00017668776
0.00015751013
0.00013989808
0.00012381299
0.00010920149
9.5997355e-05
8.4123755e-05
7.3495628e-05
6.4022198e-05
5.5609456e-05
4.8162534e-05
4.1587856e-05
3.5795035e-05
3.0698433e-05
2.6218373e-05
2.2281995e-05
1.8823778e-05
1.5785745e-05
1.3117413e-05
1.0775532e-05
8.7236651e-06
6.9316917e-06
5.3752209e-06
4.0351809e-06
2.8968462e-06
1.951274e-06
1.1885103e-06
6.1958671e-07
2.1077558e-07
5.9691055e-08
0.0008409117
0.00080632492
0.00077142693
0.0007362744
0.00070093276
0.0006655007
0.00063009538
0.00059483887
0.00055985458
0.00052526807
0.0004912066
0.00045779752
0.00042516607
0.00039343357
0.00036271551
0.00033311969
0.00030474418
0.00027767561
0.00025198745
0.00022773867
0.00020497258
0.00018371623
0.00016397998
0.00014575774
0.00012902747
0.00011375224
9.9881584e-05