/*--------------------------------*- C++ -*----------------------------------*\
  =========                 |
  \\      /  F ield         | OpenFOAM: The Open Source CFD Toolbox
   \\    /   O peration     | Website:  https://openfoam.org
    \\  /    A nd           | Version:  6
     \\/     M anipulation  |
\*---------------------------------------------------------------------------*/
FoamFile
{
    version     2.0;
    format      ascii;
    class       volVectorField;
    location    "185";
    object      U_0;
}
// * * * * * * * * * * * * * * * * * * * * * * * * * * * * * * * * * * * * * //

dimensions      [0 1 -1 0 0 0 0];

internalField   nonuniform List<vector> 
9200
(
(0.0010393473 0.0014199817 -5.9201849e-20)
(0.013676072 -0.0020583693 4.6042544e-20)
(0.038313179 -0.0058665727 -3.8501739e-20)
(0.072274458 -0.009763512 -6.0257765e-20)
(0.11376477 -0.013490038 1.8826965e-20)
(0.16158093 -0.016605669 3.2743883e-20)
(0.21467154 -0.018817299 -1.2268008e-20)
(0.27206615 -0.019973906 9.2688617e-21)
(0.33285631 -0.020011241 1.6803429e-20)
(0.39616357 -0.018929071 1.4848075e-21)
(0.46111567 -0.016779837 -2.145634e-20)
(0.52683699 -0.013657755 2.0670006e-20)
(0.59245082 -0.0096880235 -4.042215e-20)
(0.65709146 -0.0050158035 -2.1133904e-20)
(0.71992487 0.0002055327 5.9046531e-21)
(0.78017518 0.0058240644 -2.5131678e-20)
(0.83717076 0.011712779 2.5217117e-20)
(0.89046893 0.017918476 2.2243196e-20)
(0.93967088 0.024573373 -2.9929605e-22)
(0.98205203 0.028293339 -1.6691867e-21)
(0.0052521824 -0.001346274 -1.7059355e-20)
(0.026962509 -0.0089890301 3.9747721e-20)
(0.061670133 -0.01480977 2.3576295e-20)
(0.10629492 -0.019172277 -1.1569761e-19)
(0.15873569 -0.022214006 -1.2727089e-20)
(0.21753357 -0.023720696 7.3297093e-20)
(0.28137302 -0.023595108 -3.5476404e-20)
(0.34900609 -0.021868978 -8.3905581e-21)
(0.4192393 -0.018645538 3.4287545e-20)
(0.49090955 -0.014080856 -4.3259585e-20)
(0.56287244 -0.0083759676 -3.0338486e-20)
(0.6340086 -0.0017666128 7.1921446e-20)
(0.70324344 0.0054883743 3.8294054e-20)
(0.76957596 0.01311861 -6.797657e-20)
(0.83211261 0.020852057 1.4623694e-20)
(0.89010053 0.028419676 -3.6733407e-20)
(0.94296933 0.035569641 -1.3777195e-20)
(0.99043246 0.042140849 7.0974792e-20)
(1.0323562 0.047715266 2.964199e-20)
(1.066935 0.049139642 -8.3478344e-20)
(0.01085843 -0.0040424173 3.6773459e-20)
(0.043953425 -0.015431082 2.504732e-21)
(0.090515457 -0.02255229 2.2341706e-20)
(0.14711143 -0.026497367 9.8116847e-22)
(0.21134259 -0.027886308 -4.0773936e-20)
(0.28146773 -0.026795126 1.8576407e-20)
(0.35587048 -0.023382741 1.34203e-20)
(0.43299016 -0.017921551 -5.0327709e-20)
(0.51132488 -0.010735666 5.7261865e-20)
(0.58942625 -0.0021838979 1.4256691e-20)
(0.66590929 0.0073478859 -5.4300719e-20)
(0.7394805 0.017460241 -1.8237407e-20)
(0.80897612 0.027756537 9.0591595e-21)
(0.87340279 0.037859242 2.3444742e-20)
(0.93197377 0.04742401 -1.1362508e-20)
(0.98413382 0.056148934 2.7877734e-20)
(1.0295741 0.06378913 -2.0188244e-20)
(1.0682647 0.070204343 -7.012361e-20)
(1.1003323 0.075119323 -2.3796283e-20)
(1.1249113 0.076641178 4.8659839e-20)
(0.017957219 -0.0064221653 2.4508014e-20)
(0.064777011 -0.020694805 5.1039233e-20)
(0.12485231 -0.028060855 1.9881699e-20)
(0.1944697 -0.030464075 1.2990104e-20)
(0.27094937 -0.029094853 1.7275707e-20)
(0.35224887 -0.024388991 -4.7720177e-20)
(0.43643147 -0.016825986 -2.5646859e-20)
(0.52162018 -0.006976685 0)
(0.60602907 0.0045670158 1.392062e-20)
(0.68798719 0.017211713 -5.8523422e-21)
(0.76597531 0.030373901 -9.7934963e-20)
(0.83867461 0.043499608 -1.5774819e-20)
(0.9050154 0.056086589 6.5103213e-20)
(0.96421584 0.067704104 4.84424e-22)
(1.0158036 0.078007679 -1.572557e-21)
(1.0596157 0.086746752 2.19575e-20)
(1.0957774 0.093772183 -5.264722e-21)
(1.1246801 0.099065284 -6.1029749e-20)
(1.1468648 0.10259702 -4.5851245e-20)
(1.1622958 0.10341379 6.9520533e-20)
(0.026579426 -0.0082056903 -3.9194169e-21)
(0.08934404 -0.024033512 -5.1256209e-21)
(0.16430757 -0.030264996 5.6599417e-20)
(0.24758125 -0.029810029 1.853933e-20)
(0.33624167 -0.024513038 -3.1955071e-20)
(0.42795134 -0.015239871 1.216384e-20)
(0.52047272 -0.0028513747 2.6402864e-21)
(0.61166369 0.011737082 3.3609174e-20)
(0.69954724 0.027640127 5.6599514e-21)
(0.78236851 0.044028752 -1.3204744e-20)
(0.8586542 0.060147705 6.0154055e-20)
(0.92726925 0.075340448 -5.8009367e-20)
(0.9874569 0.089072835 -1.3216616e-19)
(1.0388532 0.10094899 -5.5773048e-21)
(1.0814726 0.11071705 8.3150792e-20)
(1.1156657 0.11826401 0)
(1.1420549 0.12360578 1.011896e-20)
(1.161467 0.12689051 -1.5459775e-20)
(1.174818 0.12829865 -8.5994615e-21)
(1.1826674 0.1274491 2.0992234e-20)
(0.036666917 -0.009089582 -5.4309028e-21)
(0.11731513 -0.024685363 4.3578752e-21)
(0.20811872 -0.028140186 -8.7629848e-21)
(0.30515708 -0.023414963 2.8472395e-20)
(0.40533547 -0.0130756 -2.9392664e-20)
(0.50607156 0.0015226065 -1.6927024e-20)
(0.60490501 0.019095131 3.7364237e-20)
(0.69954971 0.038365244 4.7595457e-21)
(0.78800405 0.058167633 -2.4436065e-20)
(0.86863419 0.07748299 6.9867575e-20)
(0.94023987 0.095458625 5.2393548e-22)
(1.0020957 0.11143154 -8.0444338e-20)
(1.053957 0.12494288 0)
(1.0960274 0.13573747 3.9542127e-20)
(1.1288923 0.1437484 5.5236021e-21)
(1.1534279 0.14906889 -7.7566418e-20)
(1.1706992 0.15191909 -1.9586926e-20)
(1.1818624 0.15262363 -1.2467635e-20)
(1.1880593 0.15152601 -1.4709391e-20)
(1.1901461 0.14858487 4.0420529e-20)
(0.048058879 -0.0087674073 -1.7277953e-20)
(0.14808313 -0.021931998 -2.2198454e-21)
(0.25514075 -0.02079784 3.03805e-20)
(0.36546391 -0.010412799 3.7484308e-20)
(0.47590429 0.0059015826 -1.9944733e-20)
(0.58374276 0.026269301 -6.9163034e-20)
(0.68644197 0.048977203 -2.7995801e-20)
(0.78176216 0.072417781 7.8929227e-20)
(0.86790209 0.095212469 8.5778181e-21)
(0.94358929 0.1162496 -2.4873487e-20)
(1.008126 0.13469826 1.3642211e-20)
(1.0613872 0.15001553 -4.3194518e-21)
(1.1037694 0.16193657 0)
(1.1360976 0.17044425 2.7203488e-20)
(1.1595047 0.17572306 -7.9322429e-20)
(1.1753022 0.17810366 -3.1475534e-20)
(1.1848571 0.17800809 8.1054593e-20)
(1.1894922 0.1759094 -4.2969853e-21)
(1.190403 0.17225553 3.5561079e-21)
(1.188508 0.16719293 2.7111575e-20)
(0.060485263 -0.0069573656 -3.2414607e-20)
(0.18077776 -0.015170384 -8.162432e-20)
(0.30388934 -0.0075835304 2.5797726e-21)
(0.42642563 0.0097033535 7.0161794e-20)
(0.54535158 0.032631551 6.2424372e-20)
(0.65798111 0.058820041 -7.1574533e-20)
(0.76190895 0.086176504 -2.8275155e-22)
(0.85518304 0.1128523 8.5522575e-20)
(0.93645359 0.13737837 4.8828083e-20)
(1.0050416 0.15869369 -5.4218424e-20)
(1.0609357 0.17613562 -9.2334236e-20)
(1.1047244 0.18941352 -3.1589832e-21)
(1.137476 0.19855942 4.2127873e-20)
(1.1605875 0.20385854 -6.6056299e-21)
(1.1756248 0.20577016 -1.286879e-20)
(1.1841777 0.20484915 1.9690812e-20)
(1.1877428 0.20167893 4.3880627e-20)
(1.1876454 0.19682583 -4.3859442e-20)
(1.1849954 0.19077879 -1.0232204e-19)
(1.1806251 0.18377375 2.4566886e-20)
(0.07353723 -0.0034329746 -3.4979756e-20)
(0.21422691 -0.003989027 -1.7388606e-19)
(0.35251663 0.011839375 8.2103206e-20)
(0.48562806 0.037018337 9.2767482e-20)
(0.61085389 0.066835553 5.7970566e-20)
(0.72576737 0.098481179 8.610711e-21)
(0.82834814 0.12959696 -1.0624014e-19)
(0.9171901 0.15824269 0)
(0.99162757 0.18302814 -6.8748617e-20)
(1.0517522 0.20311206 -1.5202417e-20)
(1.0983385 0.21814859 5.4703476e-20)
(1.1327009 0.22821081 1.0973384e-20)
(1.1565111 0.23369258 -4.5613862e-20)
(1.1716069 0.23519944 -4.9081371e-20)
(1.1798205 0.23344332 2.4287683e-20)
(1.1828451 0.2291532 4.4822899e-20)
(1.1821489 0.22300982 -5.560042e-20)
(1.1789361 0.21560818 -1.0751124e-19)
(1.1741469 0.2074222 -3.1513627e-21)
(1.1684568 0.19871876 2.7046407e-20)
(0.086650462 0.0019613862 -3.5449094e-21)
(0.24696023 0.011816636 8.7913202e-20)
(0.39884746 0.037492313 -1.6479229e-20)
(0.54040473 0.071218387 -8.4309093e-20)
(0.66949912 0.10778894 4.5164369e-20)
(0.78421963 0.14411544 4.9175488e-20)
(0.88318951 0.17775669 5.5356809e-21)
(0.96577882 0.2068849 -9.9502545e-20)
(1.0321764 0.23038802 -2.504879e-21)
(1.0833329 0.24781553 5.0503561e-20)
(1.1208071 0.259263 5.9854789e-21)
(1.1465559 0.26523618 -1.9717201e-20)
(1.1627108 0.26650531 -7.5704633e-20)
(1.1713766 0.2639662 -6.2554045e-21)
(1.1744763 0.25852426 4.353336e-20)
(1.1736549 0.25101085 3.7022019e-20)
(1.1702384 0.24213391 1.9793445e-20)
(1.1652403 0.23245871 -5.2994855e-20)
(1.1594015 0.22240414 1.2957451e-20)
(1.1532252 0.21223795 8.2659116e-20)
(-0.0012932618 0.00143466 -1.1234465e-21)
(-0.0047459613 0.0031874154 2.0646972e-21)
(-0.010771361 0.0041359048 8.7949524e-22)
(-0.017754291 0.0045395367 -2.4410997e-21)
(-0.024740322 0.0045654173 -1.4114831e-21)
(-0.031299598 0.0043260392 1.5460054e-21)
(-0.037161334 0.0039035387 -6.8700813e-21)
(-0.042147449 0.0033577221 -5.9573099e-21)
(-0.046157783 0.0027313815 1.1172001e-20)
(-0.049146197 0.0020548306 -9.7427516e-21)
(-0.051100661 0.0013493003 -1.9833163e-22)
(-0.05203045 0.00062942156 3.6673439e-21)
(-0.051957743 -9.4890065e-05 -6.3295659e-22)
(-0.050911886 -0.00081693121 2.2818751e-20)
(-0.048925782 -0.0015318458 3.0401182e-22)
(-0.046035343 -0.0022351753 -4.0882886e-20)
(-0.042281798 -0.0029222696 7.5385638e-21)
(-0.03770344 -0.0035910404 2.386412e-20)
(-0.032308689 -0.0042399887 -4.3852393e-20)
(-0.026156956 -0.0048211156 -2.7739216e-20)
(-0.0016522003 0.0041808671 -5.3716025e-21)
(-0.0053974822 0.00926814 1.086544e-20)
(-0.011218511 0.012007446 -1.0191541e-20)
(-0.017658029 0.013153766 3.9229735e-21)
(-0.023856437 0.013195415 4.8121448e-21)
(-0.029433322 0.012462726 7.1324203e-22)
(-0.034152325 0.011197015 -2.2509496e-20)
(-0.037860383 0.0095738979 -2.0370238e-21)
(-0.040474304 0.0077189878 2.0163544e-20)
(-0.041958927 0.0057212304 -5.0473613e-21)
(-0.042308954 0.0036428639 -2.1762595e-20)
(-0.04153734 0.0015267115 4.8973183e-21)
(-0.039667715 -0.00059830735 2.2635429e-20)
(-0.036729082 -0.0027127636 1.0308394e-20)
(-0.032752033 -0.0048026925 2.1854291e-20)
(-0.027769167 -0.0068555125 -1.9770735e-20)
(-0.021824789 -0.0088582246 -2.1672951e-20)
(-0.014966262 -0.010804231 2.1184625e-20)
(-0.0071290062 -0.012679008 2.6810375e-20)
(0.0018743099 -0.014317231 1.5854772e-20)
(-0.0023034296 0.006560234 -4.3568692e-21)
(-0.006539225 0.014480198 -5.6387549e-21)
(-0.011892133 0.018710546 3.0723933e-22)
(-0.017211102 0.020428184 1.0959868e-21)
(-0.021819145 0.020400327 6.6918404e-21)
(-0.025431044 0.019151668 1.0665169e-20)
(-0.027877235 0.017066289 -3.7227645e-21)
(-0.029053271 0.014423784 -1.8896166e-20)
(-0.028909038 0.011424352 6.5413182e-21)
(-0.027431051 0.0082099045 1.2862573e-20)
(-0.024627713 0.0048797745 5.8340856e-21)
(-0.020520106 0.001502236 1.815911e-20)
(-0.015135981 -0.001876867 1.7295919e-21)
(-0.0085053917 -0.0052272527 -3.3864538e-20)
(-0.00065688304 -0.0085276162 1.2020174e-21)
(0.0083810299 -0.011759117 -2.2139217e-20)
(0.018556883 -0.014904105 -2.446631e-20)
(0.029802201 -0.017953762 4.5819725e-20)
(0.042304988 -0.020855128 2.5349356e-20)
(0.0567386 -0.023247779 1.2239327e-22)
(-0.0031290282 0.0083689716 -5.2833079e-21)
(-0.0078964002 0.018336516 -8.4815295e-21)
(-0.012438988 0.023587813 4.3593051e-21)
(-0.016026537 0.025609662 4.1463457e-21)
(-0.018235025 0.025382749 2.010571e-21)
(-0.018912652 0.023589324 7.3209969e-21)
(-0.017984717 0.020730275 9.3124794e-21)
(-0.015416709 0.017170379 -1.3511358e-21)
(-0.011207045 0.013171314 -1.1481949e-20)
(-0.0053752292 0.00891893 -2.9071883e-20)
(0.0020481177 0.0045434342 6.189232e-23)
(0.011026517 0.00013430653 4.069783e-20)
(0.021522236 -0.004248957 -1.8383176e-20)
(0.033497865 -0.0085675925 -1.2296091e-20)
(0.046920529 -0.012795555 5.5348951e-22)
(0.061760116 -0.016911866 3.2302652e-20)
(0.077953039 -0.020901682 -1.4829548e-20)
(0.095392294 -0.02476339 -5.3339199e-20)
(0.11439848 -0.028379734 4.5765021e-20)
(0.13634542 -0.031073113 3.3013179e-20)
(-0.0039704103 0.009465734 -6.8788975e-22)
(-0.0090916593 0.020487795 -1.2534742e-20)
(-0.012364472 0.026159091 -3.4144542e-20)
(-0.013552541 0.028143342 -5.7241633e-21)
(-0.01253324 0.02755501 -3.6222749e-21)
(-0.009316723 0.025188067 6.3051045e-21)
(-0.0039456415 0.021627413 -4.6461964e-21)
(0.0035261339 0.01729896 -8.8070282e-21)
(0.013036829 0.01250875 2.1899713e-20)
(0.024521254 0.0074744395 5.0567082e-21)
(0.037915555 0.0023488991 -2.5290299e-20)
(0.053157466 -0.0027627909 1.1078281e-20)
(0.070186893 -0.0077908834 0)
(0.088946613 -0.012691314 1.2089578e-20)
(0.10938548 -0.017436932 -9.7016199e-21)
(0.13145746 -0.022009912 -1.4337123e-20)
(0.15507412 -0.026408664 -1.5738951e-21)
(0.18006766 -0.030659441 -2.218156e-21)
(0.20685349 -0.034576556 4.6147075e-20)
(0.23766367 -0.037019893 -1.0470131e-20)
(-0.0046450986 0.009780864 -7.5356692e-21)
(-0.0096772521 0.020747883 2.4516405e-20)
(-0.011064381 0.026160981 -1.0499349e-20)
(-0.0090968321 0.027724448 -2.7469287e-20)
(-0.0039797184 0.026601697 -2.7548152e-20)
(0.0040961879 0.02364841 -1.4921571e-20)
(0.014954158 0.019496457 -6.9059598e-22)
(0.028436248 0.014604704 5.5499793e-21)
(0.044403164 0.0093034432 1.9615882e-20)
(0.062730519 0.0038284101 7.3530868e-21)
(0.083304344 -0.0016547627 -7.1862227e-21)
(0.10601901 -0.0070322484 -2.0102316e-21)
(0.13077361 -0.01222911 -3.8191718e-20)
(0.15746949 -0.017199767 -1.2693647e-20)
(0.18601206 -0.021919751 1.875061e-20)
(0.21631184 -0.026379737 -2.1021679e-20)
(0.24823231 -0.030602245 -8.9730599e-21)
(0.28151876 -0.034670633 3.0440473e-20)
(0.31660714 -0.038364848 5.0472081e-20)
(0.35665027 -0.039964131 3.3559674e-21)
(-0.0049617691 0.0093140002 1.6783307e-20)
(-0.0091662701 0.019097712 1.4467941e-20)
(-0.0078593645 0.023563369 5.1145497e-20)
(-0.0018585369 0.024328946 2.3387986e-20)
(0.0082957286 0.022523785 1.8251777e-22)
(0.02222195 0.019014384 -3.9388462e-20)
(0.039597456 0.014440934 -2.4313864e-20)
(0.060147924 0.0092663556 1.0465819e-20)
(0.083639142 0.0038232222 1.4401589e-20)
(0.10986672 -0.0016513075 -1.3113715e-20)
(0.13864567 -0.0069910202 -4.4038723e-20)
(0.16980175 -0.01208286 2.9618504e-20)
(0.20316411 -0.016854174 2.0020556e-20)
(0.23855953 -0.021264013 -2.7551161e-20)
(0.27581238 -0.025296423 1.1650137e-20)
(0.3147482 -0.028957191 2.4197618e-20)
(0.35514556 -0.032303078 8.072396e-21)
(0.39663399 -0.035506706 -1.1764213e-20)
(0.43957714 -0.038392674 -1.4190301e-20)
(0.48798524 -0.038634437 5.8727647e-21)
(-0.0047307768 0.0081236744 1.1093847e-20)
(-0.0070586006 0.015671178 -2.3352724e-20)
(-0.002029364 0.018562034 8.6200562e-21)
(0.0090325254 0.018216226 3.3587972e-20)
(0.025256371 0.015651149 5.2124347e-20)
(0.046066353 0.011695601 2.0276513e-20)
(0.070984545 0.0069609479 -5.8639359e-21)
(0.099601977 0.0018829448 -1.2286287e-20)
(0.13156898 -0.0032272069 -6.2057471e-21)
(0.16657572 -0.0081496685 3.424084e-20)
(0.2043343 -0.012733334 -4.510438e-21)
(0.24456491 -0.016879203 -1.6643303e-20)
(0.28698477 -0.020528704 -1.9693577e-20)
(0.33130007 -0.023656432 -4.7443747e-20)
(0.37720468 -0.026265555 2.3238708e-20)
(0.42438781 -0.028387885 -1.4095987e-20)
(0.47249986 -0.030127646 2.5993404e-20)
(0.52103631 -0.031783217 2.1040827e-20)
(0.57021409 -0.033350708 -8.5570402e-20)
(0.62470932 -0.032058872 -1.0807121e-22)
(-0.0037710522 0.0063146401 2.1925059e-20)
(-0.0028657654 0.010735096 -2.6165534e-20)
(0.0071421089 0.011564137 -4.5013302e-20)
(0.024450241 0.0099249884 -2.7253786e-20)
(0.047870865 0.0066523031 -2.0439873e-21)
(0.076628724 0.0024906124 1.30501e-20)
(0.11007676 -0.002015402 -2.8337717e-21)
(0.1476521 -0.0064879128 1.811854e-20)
(0.18886101 -0.010663514 8.8685639e-21)
(0.23325201 -0.014362434 -1.1380174e-20)
(0.28039156 -0.017468964 8.8779126e-21)
(0.32984611 -0.019916822 -2.3903271e-20)
(0.3811689 -0.021678716 8.0504766e-21)
(0.43389095 -0.022759895 1.6756394e-20)
(0.48751947 -0.023194323 -2.6395123e-21)
(0.54154729 -0.023046915 1.6618974e-21)
(0.5954356 -0.022469471 -3.1957479e-22)
(0.64851798 -0.021870132 1.9590423e-20)
(0.70082255 -0.021445092 4.0434015e-21)
(0.75745167 -0.018499113 -5.7334885e-22)
(-0.0019110141 0.0040273484 2.3692116e-20)
(0.0038694325 0.0046765197 5.715997e-20)
(0.020315317 0.0031879627 -4.9244231e-20)
(0.045178298 0.000294423 -9.945417e-21)
(0.076965172 -0.0034241566 2.0256352e-20)
(0.11469626 -0.0073535925 2.1433723e-21)
(0.15753887 -0.011054965 -2.9815168e-20)
(0.20474836 -0.014244149 6.9848125e-21)
(0.25564956 -0.01673794 7.1097877e-21)
(0.3096048 -0.018426971 -2.6254081e-20)
(0.36598656 -0.019260113 1.2927325e-21)
(0.42415968 -0.019231884 -3.7174118e-20)
(0.48347112 -0.018372222 -3.6341019e-20)
(0.54324577 -0.016738297 6.5683489e-20)
(0.60278826 -0.014407325 5.5627492e-21)
(0.66138899 -0.011475923 -1.5188798e-20)
(0.718308 -0.0081020727 1.9363968e-20)
(0.77269917 -0.0045928957 -9.1888148e-22)
(0.82408851 -0.00096808085 2.0364578e-20)
(0.87621983 0.0043280333 -1.9554149e-20)
(-0.01883641 -0.0050997051 5.8352063e-20)
(-0.010224645 -0.0056349285 1.5783672e-20)
(-0.00022118087 -0.0060688815 -3.5139569e-20)
(0.010823244 -0.0063341111 1.6790238e-20)
(0.022642488 -0.0065120484 0)
(0.03517791 -0.0066300914 0)
(0.048369692 -0.0066909748 -2.2974953e-20)
(0.062138112 -0.0067025412 -1.6502875e-20)
(0.07641276 -0.0066741757 1.9122597e-20)
(0.091134127 -0.0066126671 1.8174038e-20)
(0.10624724 -0.0065232073 1.0524258e-21)
(0.12170029 -0.0064103596 -1.0317639e-20)
(0.13744499 -0.0062780828 8.3268811e-21)
(0.1534361 -0.0061297242 1.8233722e-20)
(0.16963088 -0.005968147 -5.2274181e-21)
(0.18598867 -0.0057958366 -1.0174938e-20)
(0.20247071 -0.0056149641 -4.3195886e-21)
(0.21903999 -0.0054274386 -4.4257401e-21)
(0.23566107 -0.0052349522 7.3667211e-22)
(0.25230008 -0.0050390152 1.2286044e-21)
(0.2689247 -0.0048409826 2.5666321e-21)
(0.28550413 -0.0046420741 6.6539487e-21)
(0.30200919 -0.0044433891 2.4894401e-22)
(0.31841233 -0.0042459168 -3.4514716e-21)
(0.33468773 -0.004050545 1.5558763e-22)
(0.3508113 -0.0038580651 -5.7709815e-22)
(0.36676079 -0.0036691771 1.2434371e-21)
(0.3825158 -0.0034844935 1.0522441e-21)
(0.3980578 -0.0033045427 -1.2987949e-21)
(0.41337017 -0.0031297729 -1.2218735e-22)
(0.42843818 -0.002960556 3.5748957e-23)
(0.44324898 -0.0027971921 -3.5187634e-22)
(0.45779157 -0.0026399142 -4.0565541e-22)
(0.47205676 -0.0024888936 5.5413911e-23)
(0.48603715 -0.0023442456 -1.380907e-22)
(0.49972704 -0.0022060356 -2.2343218e-22)
(0.5131224 -0.0020742859 2.5572003e-22)
(0.5262209 -0.001948982 2.9502088e-22)
(0.53902173 -0.0018300822 -8.2719673e-24)
(0.55152601 -0.0017175211 -1.5517602e-22)
(0.56373571 -0.0016112377 3.0406648e-23)
(0.57565741 -0.0015111317 -4.0145072e-23)
(0.58729129 -0.0014172741 9.2205607e-23)
(0.59866636 -0.0013293286 2.1977003e-23)
(0.60973701 -0.0012485786 -1.1395056e-22)
(0.62069523 -0.0011718149 -6.7618576e-24)
(0.6310634 -0.001111268 -7.2288887e-26)
(0.6423522 -0.0010339729 -3.5617611e-24)
(0.6504303 -0.0010508334 2.9453644e-23)
(0.66701174 -0.00087559116 3.6051372e-22)
(0.010445893 -0.015017618 -1.274682e-20)
(0.018179727 -0.016641021 -6.3302355e-20)
(0.027779251 -0.017915424 -3.0541951e-20)
(0.038385188 -0.018672082 3.8476027e-20)
(0.049621037 -0.0191836 1.4662617e-20)
(0.061506687 -0.019529445 -1.8204936e-20)
(0.074012887 -0.019709878 4.6722036e-21)
(0.087062745 -0.019746506 2.5447199e-20)
(0.10059323 -0.019667295 9.1992919e-23)
(0.11455411 -0.019491715 -7.6591283e-21)
(0.12889728 -0.019234375 -1.3021021e-20)
(0.14357613 -0.018908327 -8.5245347e-21)
(0.15854677 -0.018524989 1.7772342e-20)
(0.17376769 -0.018094017 8.9295511e-21)
(0.18919914 -0.017623696 -1.6522444e-20)
(0.20480293 -0.017121248 -6.039061e-21)
(0.22054232 -0.016593014 3.2145059e-21)
(0.23638195 -0.016044588 8.3716356e-21)
(0.25228775 -0.015480949 6.983231e-21)
(0.26822697 -0.014906559 -6.9727214e-21)
(0.28416819 -0.014325432 -3.1685503e-21)
(0.30008138 -0.013741193 1.3605369e-21)
(0.31593795 -0.013157118 3.8683117e-22)
(0.33171086 -0.01257616 1.2113969e-21)
(0.34737464 -0.012000978 1.8368444e-22)
(0.3629055 -0.011433945 -3.266173e-22)
(0.37828137 -0.010877162 -7.2435005e-22)
(0.39348197 -0.010332475 9.7156899e-22)
(0.40848881 -0.0098014775 8.2483185e-22)
(0.42328523 -0.0092855251 -1.5147614e-22)
(0.43785643 -0.0087857465 5.5306312e-22)
(0.45218938 -0.0083030564 -2.3880957e-22)
(0.46627289 -0.0078381692 -3.7070135e-22)
(0.48009752 -0.0073916153 -6.0999399e-22)
(0.49365554 -0.0069637576 4.4171875e-22)
(0.50694092 -0.0065548102 -1.5480304e-23)
(0.51994927 -0.0061648576 1.6125063e-22)
(0.53267782 -0.005793875 -4.4175272e-22)
(0.54512536 -0.0054417556 3.7190228e-22)
(0.55729253 -0.005108321 6.7175947e-23)
(0.56918084 -0.0047934065 -1.0285409e-22)
(0.58079636 -0.0044967282 1.7614244e-22)
(0.59213883 -0.0042185151 2.3340527e-22)
(0.60323653 -0.0039577776 1.6927282e-22)
(0.614044 -0.0037183612 1.6768221e-22)
(0.62475039 -0.0034907103 -2.6099767e-23)
(0.63488444 -0.0033112751 8.4053993e-23)
(0.64593389 -0.0030819376 7.6301917e-23)
(0.65383245 -0.0031324351 -1.9467879e-22)
(0.67009491 -0.0026125296 -3.8025827e-23)
(0.067614729 -0.02402916 9.4528332e-21)
(0.073589716 -0.026749064 3.2951001e-21)
(0.082265559 -0.028805584 -1.2162206e-20)
(0.091947878 -0.029968521 -1.2257918e-21)
(0.10198327 -0.030767882 1.4970594e-20)
(0.11254641 -0.03133091 -1.4887128e-20)
(0.12367605 -0.03163609 -2.9842283e-20)
(0.13529691 -0.031713026 1.4493528e-20)
(0.14735705 -0.031607657 1.8181974e-20)
(0.15982353 -0.031350077 -1.1598521e-20)
(0.17266071 -0.030961842 1.0190556e-21)
(0.18583095 -0.030462777 8.6860174e-21)
(0.19929798 -0.029870575 -1.5253548e-20)
(0.21302673 -0.029200263 2.90952e-21)
(0.22698261 -0.028464785 7.5194401e-21)
(0.2411316 -0.02767553 3.1594942e-23)
(0.25544036 -0.026842585 2.65562e-22)
(0.26987629 -0.025974924 -7.4150912e-21)
(0.28440757 -0.025080592 3.8616894e-21)
(0.29900326 -0.024166847 8.4749117e-21)
(0.31363343 -0.023240263 -3.8351793e-21)
(0.32826924 -0.022306803 -2.2130378e-21)
(0.34288306 -0.021371886 1.0124434e-21)
(0.35744857 -0.020440418 -1.7155349e-21)
(0.37194089 -0.019516826 1.3532264e-21)
(0.38633663 -0.018605079 7.1845976e-22)
(0.40061396 -0.017708709 1.5268454e-21)
(0.41475273 -0.016830819 -1.9526688e-21)
(0.42873445 -0.015974105 2.223577e-21)
(0.44254234 -0.015140871 5.5188741e-22)
(0.45616136 -0.014333045 4.0323138e-22)
(0.46957816 -0.0135522 3.2134527e-22)
(0.48278112 -0.012799583 8.7325704e-22)
(0.49576029 -0.01207613 -1.3708719e-21)
(0.50850737 -0.011382503 3.7065952e-22)
(0.52101567 -0.010719116 1.0941714e-22)
(0.53328008 -0.010086168 -4.5173769e-23)
(0.54529707 -0.0094836756 8.6731026e-23)
(0.5570646 -0.0089115177 -3.7185493e-22)
(0.56858248 -0.0083694546 1.8293906e-22)
(0.57985131 -0.0078572673 -3.4987541e-23)
(0.59087625 -0.0073745376 3.9005637e-22)
(0.60165621 -0.0069216947 -1.8545189e-22)
(0.61221808 -0.0064971502 4.7324831e-23)
(0.62251673 -0.0061072931 4.3606447e-23)
(0.6327359 -0.0057364355 -7.3604487e-23)
(0.6424165 -0.0054445195 -1.2083788e-22)
(0.65300228 -0.0050706211 3.8812546e-22)
(0.66055247 -0.0051543814 1.7271788e-22)
(0.67619665 -0.0043071664 -8.3041422e-22)
(0.15021535 -0.031460448 1.5010129e-21)
(0.15354697 -0.035257415 -1.1566613e-20)
(0.1606163 -0.038010942 6.6441972e-21)
(0.16880599 -0.039479122 -1.3324745e-20)
(0.17698233 -0.040520714 -1.9758316e-21)
(0.18552356 -0.041302306 9.1599442e-21)
(0.19458431 -0.041757264 -9.766222e-21)
(0.20408704 -0.041913739 1.566277e-21)
(0.21398781 -0.04183336 1.2903804e-20)
(0.22427613 -0.041554366 3.4032019e-21)
(0.23493269 -0.041102077 -6.2096984e-21)
(0.24593037 -0.040500482 -2.863812e-21)
(0.25724176 -0.039771783 -5.8409067e-21)
(0.26883931 -0.03893509 -6.4553178e-21)
(0.28069444 -0.038007011 3.2356911e-21)
(0.29277785 -0.037002339 8.4620743e-22)
(0.30505998 -0.035934363 1.36796e-21)
(0.31751124 -0.034815061 -3.3850436e-21)
(0.33010223 -0.033655289 -4.2428911e-21)
(0.34280392 -0.032464937 2.3616537e-21)
(0.35558788 -0.031253039 3.2251407e-21)
(0.36842647 -0.030027859 -1.5636236e-21)
(0.38129296 -0.028796946 1.5867292e-21)
(0.39416172 -0.027567178 -3.912418e-22)
(0.40700833 -0.02634479 -3.9196503e-21)
(0.41980968 -0.0251354 -3.0332859e-21)
(0.43254411 -0.023944026 -1.902648e-22)
(0.44519141 -0.0227751 4.28588e-22)
(0.45773292 -0.021632494 -2.2106077e-21)
(0.47015158 -0.020519532 -8.5497809e-22)
(0.48243191 -0.019439023 2.2837689e-22)
(0.49456004 -0.018393281 -1.2498759e-21)
(0.50652367 -0.017384161 6.2612193e-24)
(0.51831213 -0.016413092 -4.2421314e-22)
(0.52991625 -0.015481117 -4.7193769e-22)
(0.54132844 -0.014588933 -5.1996573e-22)
(0.55254259 -0.013736934 -8.4134488e-22)
(0.5635541 -0.012925261 -5.4495303e-23)
(0.57435983 -0.012153861 -3.916073e-24)
(0.58495841 -0.01142251 -5.1973415e-22)
(0.59534926 -0.010731013 -9.1605861e-23)
(0.60553625 -0.010078893 -3.3240423e-22)
(0.61551719 -0.0094668416 -4.3761762e-22)
(0.62531708 -0.0088927619 3.7843418e-22)
(0.63489131 -0.0083655386 1.4821653e-23)
(0.64441594 -0.0078637255 1.8238779e-22)
(0.65344938 -0.0074694971 -1.3248101e-22)
(0.66337225 -0.0069631196 -2.6693267e-22)
(0.67042447 -0.0070793409 -4.4679788e-23)
(0.68518193 -0.0059329002 4.6230509e-22)
(0.25468574 -0.03655278 -2.0900319e-20)
(0.25447029 -0.041393532 4.7585965e-20)
(0.25907342 -0.044745682 1.0348098e-20)
(0.26508421 -0.046442068 -1.5765324e-20)
(0.27070942 -0.047714341 -2.0227952e-21)
(0.27652004 -0.048747803 2.6232267e-21)
(0.2828356 -0.049413747 -1.660821e-21)
(0.28957701 -0.049728129 -4.6861434e-21)
(0.29669669 -0.049761462 -4.015918e-21)
(0.30420559 -0.049557085 -1.2207643e-20)
(0.31210231 -0.049141721 1.7897764e-20)
(0.32036951 -0.048540837 6.5219943e-21)
(0.32898714 -0.047779002 -1.6780531e-20)
(0.33793418 -0.046878057 1.0317575e-20)
(0.34718724 -0.045857339 8.3849921e-21)
(0.35672093 -0.044734353 -8.7923402e-22)
(0.36650864 -0.043525109 -3.1222223e-21)
(0.3765231 -0.042244291 -3.819737e-21)
(0.38673663 -0.040905403 -1.3892603e-21)
(0.39712154 -0.039520898 -1.2304215e-21)
(0.40765034 -0.038102268 -3.0257659e-21)
(0.41829607 -0.036660117 0)
(0.42903243 -0.035204203 -1.345194e-21)
(0.43983405 -0.033743473 3.9309554e-21)
(0.45067659 -0.03228608 5.4052761e-21)
(0.46153686 -0.030839408 -9.4112625e-22)
(0.47239299 -0.029410083 -2.9274535e-21)
(0.48322442 -0.028003993 3.0258508e-21)
(0.49401205 -0.026626304 2.5447102e-22)
(0.50473823 -0.025281489 3.4352595e-21)
(0.51538678 -0.023973355 -5.345982e-22)
(0.52594305 -0.022705075 1.7173538e-21)
(0.53639388 -0.021479234 -7.9964924e-22)
(0.54672757 -0.020297866 2.9094592e-22)
(0.55693394 -0.019162507 -4.3404459e-22)
(0.56700423 -0.018074248 5.6232034e-22)
(0.57693113 -0.017033788 4.5710455e-22)
(0.58670879 -0.016041496 3.8256147e-22)
(0.59633273 -0.015097489 -9.5937718e-22)
(0.60580023 -0.014201662 6.8356692e-22)
(0.61510933 -0.013353937 -3.6958113e-22)
(0.62426236 -0.012553874 -1.1033494e-21)
(0.63325592 -0.011802504 1.4078627e-21)
(0.64211272 -0.011097333 -6.2007611e-23)
(0.65078893 -0.010449668 -1.5816738e-22)
(0.65945107 -0.0098328058 -7.8249195e-24)
(0.66767976 -0.0093494376 -1.2622878e-22)
(0.67677586 -0.0087264115 -4.6585745e-22)
(0.68320786 -0.0088738772 8.7882124e-22)
(0.69685384 -0.0074651647 -4.4316731e-23)
(0.3763514 -0.038368193 -1.7495105e-20)
(0.37170988 -0.044270257 1.283205e-20)
(0.37286701 -0.048161642 2.9754604e-21)
(0.37591057 -0.050098881 -7.6353762e-21)
(0.37830539 -0.051670003 1.2055987e-20)
(0.38072307 -0.053042406 7.7914142e-21)
(0.38367615 -0.054030074 -1.2647693e-20)
(0.38710072 -0.054633138 -6.0679787e-21)
(0.39092939 -0.054918041 1.2697345e-20)
(0.39518259 -0.054927172 -1.5304983e-20)
(0.39987442 -0.054687554 -1.4063197e-20)
(0.40499525 -0.054224693 1.4129644e-20)
(0.41052881 -0.053563701 6.8193871e-21)
(0.41645738 -0.052727992 -4.203774e-21)
(0.42276036 -0.051739061 -1.8545582e-21)
(0.42941426 -0.050616795 -4.0581701e-21)
(0.43639372 -0.049379748 5.3047586e-21)
(0.44367221 -0.048045275 3.668211e-21)
(0.45122251 -0.046629597 -3.2408305e-21)
(0.45901707 -0.045147866 3.1379506e-21)
(0.46702838 -0.043614211 2.7666841e-21)
(0.47522923 -0.04204178 -3.2111176e-21)
(0.48359303 -0.040442756 3.7056592e-22)
(0.49209392 -0.038828373 -3.2571667e-21)
(0.50070703 -0.037208923 7.2454357e-21)
(0.50940855 -0.035593766 6.1080741e-21)
(0.51817588 -0.033991342 8.0973688e-22)
(0.5269877 -0.032409187 -1.7683274e-21)
(0.53582405 -0.03085395 3.7021954e-21)
(0.54466634 -0.029331427 7.188554e-21)
(0.55349743 -0.02784659 2.3049391e-21)
(0.56230158 -0.026403634 3.3165064e-21)
(0.57106451 -0.025006021 1.995632e-21)
(0.57977336 -0.023656535 7.4558562e-22)
(0.58841668 -0.022357345 -2.6374636e-22)
(0.59698443 -0.021110066 2.7203405e-21)
(0.60546796 -0.01991583 6.1992885e-22)
(0.61386004 -0.018775357 2.9488111e-22)
(0.62215476 -0.017689049 5.62331e-23)
(0.63034794 -0.016657032 9.8968585e-22)
(0.63843616 -0.015679452 4.7020685e-23)
(0.64642016 -0.014756009 4.424875e-22)
(0.65429524 -0.013888154 -1.2622117e-22)
(0.66208165 -0.013073123 -2.7736014e-22)
(0.66973666 -0.012324541 -1.5219345e-22)
(0.67741573 -0.011611042 -4.221026e-22)
(0.68472572 -0.011053763 1.6140827e-22)
(0.69287419 -0.010332573 -1.2724428e-22)
(0.69859718 -0.010509707 -5.0125849e-22)
(0.71096011 -0.0088820749 2.4587526e-22)
(0.50927442 -0.035974308 3.6471433e-21)
(0.49953051 -0.04296069 -1.8958305e-20)
(0.49627568 -0.047383488 -2.3083857e-21)
(0.49555604 -0.049736794 5.4869528e-21)
(0.49416965 -0.05181806 3.0528118e-21)
(0.49269586 -0.053705426 -4.9884814e-23)
(0.49181242 -0.055187665 6.1896715e-21)
(0.49151464 -0.056265415 7.6251051e-21)
(0.4917118 -0.05699055 9.8580443e-21)
(0.49241086 -0.057395591 -1.1250047e-20)
(0.49363119 -0.057506319 -2.1579434e-20)
(0.49536793 -0.057348435 -3.9353511e-21)
(0.49760484 -0.056947149 1.5938153e-20)
(0.5003232 -0.056327028 1.2808966e-20)
(0.50350185 -0.055511751 -5.9066963e-21)
(0.50711672 -0.054523865 1.3817019e-21)
(0.51114161 -0.053384803 -3.6600895e-21)
(0.51554898 -0.052114957 2.2443833e-21)
(0.52031053 -0.050733666 -2.9123038e-22)
(0.5253976 -0.049259184 -1.8654117e-21)
(0.53078153 -0.04770868 7.8266007e-21)
(0.53643394 -0.04609823 -2.930904e-22)
(0.54232702 -0.04444281 4.1818391e-22)
(0.54843373 -0.042756285 -6.5646439e-22)
(0.55472796 -0.041051406 -4.3029454e-21)
(0.56118469 -0.039339812 4.2085236e-21)
(0.56778006 -0.037632034 1.9031233e-21)
(0.57449152 -0.035937512 -3.3081993e-21)