/*--------------------------------*- C++ -*----------------------------------*\
  =========                 |
  \\      /  F ield         | OpenFOAM: The Open Source CFD Toolbox
   \\    /   O peration     | Website:  https://openfoam.org
    \\  /    A nd           | Version:  6
     \\/     M anipulation  |
\*---------------------------------------------------------------------------*/
FoamFile
{
    version     2.0;
    format      ascii;
    class       volScalarField;
    location    "229";
    object      p;
}
// * * * * * * * * * * * * * * * * * * * * * * * * * * * * * * * * * * * * * //

dimensions      [0 2 -2 0 0 0 0];

internalField   nonuniform List<scalar> 
9200
(
-0.37794901
-0.36660252
-0.35650885
-0.34755956
-0.33881987
-0.33030364
-0.32208916
-0.31414391
-0.30640059
-0.29878727
-0.29123098
-0.28366269
-0.27602425
-0.26827564
-0.26040562
-0.25244948
-0.24448355
-0.23659567
-0.22981073
-0.22841076
-0.39580971
-0.38201205
-0.36997475
-0.35950567
-0.34939395
-0.33962104
-0.33025569
-0.32123464
-0.31245839
-0.30382859
-0.29525206
-0.2866466
-0.27794852
-0.26911862
-0.26014782
-0.25106108
-0.24188825
-0.23262905
-0.22396639
-0.21806623
-0.41408739
-0.39781572
-0.38388071
-0.37196228
-0.36053385
-0.34952625
-0.33898696
-0.32881427
-0.31887449
-0.30904676
-0.29922679
-0.28933251
-0.27931086
-0.26914087
-0.25883357
-0.24842763
-0.23796182
-0.22744509
-0.21727668
-0.20857165
-0.43234798
-0.41362142
-0.39785407
-0.3845479
-0.37182301
-0.35954327
-0.34772702
-0.33623359
-0.32490304
-0.31360738
-0.30225195
-0.29077853
-0.27916844
-0.2674403
-0.25564343
-0.24384763
-0.23211944
-0.22049776
-0.20925003
-0.19911736
-0.44996157
-0.42888314
-0.41140019
-0.39678335
-0.3827717
-0.36915134
-0.35591134
-0.34288272
-0.32989984
-0.31685464
-0.30369182
-0.29040521
-0.27703359
-0.2636508
-0.25035231
-0.23724105
-0.22440708
-0.21190892
-0.19993479
-0.1889921
-0.46610366
-0.44288188
-0.42385897
-0.40802091
-0.39271593
-0.37765246
-0.36280274
-0.34799511
-0.33309236
-0.31804272
-0.30286312
-0.28762415
-0.2724357
-0.25742893
-0.24273798
-0.22848489
-0.21476428
-0.20163206
-0.18921421
-0.17784752
-0.4797691
-0.45473133
-0.43440576
-0.41744657
-0.40082799
-0.38419658
-0.36753555
-0.35071132
-0.33365957
-0.31642423
-0.29912266
-0.28191599
-0.2649844
-0.24850353
-0.23262583
-0.21746917
-0.20310924
-0.18957717
-0.1769398
-0.16539833
-0.48979411
-0.46340134
-0.44208379
-0.42412704
-0.40618102
-0.38786436
-0.3692139
-0.35018633
-0.33083869
-0.31134553
-0.29194197
-0.27287931
-0.25439335
-0.23668095
-0.21988687
-0.20410093
-0.1893603
-0.17565684
-0.16299946
-0.1514754
-0.49483647
-0.46761665
-0.44560708
-0.42672653
-0.40739909
-0.38727749
-0.36651222
-0.34520749
-0.32358123
-0.30195419
-0.28067265
-0.26005547
-0.2403633
-0.22178289
-0.20442503
-0.18833286
-0.17349426
-0.1598576
-0.14737778
-0.13604456
-0.49354574
-0.46596037
-0.44342802
-0.42357974
-0.40276042
-0.38074056
-0.35784969
-0.33438535
-0.31074016
-0.28736422
-0.26467766
-0.24302148
-0.2226384
-0.20367208
-0.18617894
-0.1701468
-0.15551468
-0.14219312
-0.13009025
-0.11911097
-0.265067
-0.26974129
-0.2722497
-0.27300084
-0.27278672
-0.27179421
-0.27010477
-0.26780594
-0.26496991
-0.26165143
-0.25789454
-0.25373674
-0.24921115
-0.24434784
-0.23917508
-0.23372175
-0.22801873
-0.22208655
-0.21592424
-0.20961732
-0.26779965
-0.27205867
-0.27426034
-0.27479281
-0.27439562
-0.27324689
-0.27142618
-0.26901732
-0.26608897
-0.262693
-0.25887106
-0.25465854
-0.25008667
-0.24518351
-0.23997472
-0.23448818
-0.22876224
-0.22281577
-0.21654148
-0.20991343
-0.27312912
-0.27657609
-0.27817977
-0.27828451
-0.2775284
-0.27607412
-0.27399771
-0.27137575
-0.26826994
-0.26472656
-0.2607824
-0.25646865
-0.25181276
-0.24683895
-0.24156804
-0.23602504
-0.2302597
-0.22428979
-0.21781619
-0.21058115
-0.28081554
-0.2831
-0.28383814
-0.28331416
-0.28202514
-0.28011419
-0.27765339
-0.27470944
-0.27133439
-0.26756667
-0.26343624
-0.25896816
-0.25418436
-0.24910335
-0.24373915
-0.2381116
-0.23228241
-0.22627394
-0.21954071
-0.21145515
-0.29055663
-0.29138737
-0.29102395
-0.28968271
-0.28769181
-0.2851736
-0.28219695
-0.2788173
-0.27507528
-0.27100006
-0.26661336
-0.26193198
-0.25697031
-0.25173994
-0.24624678
-0.24050229
-0.23457617
-0.22850398
-0.22148104
-0.21236504
-0.30203859
-0.30118601
-0.29951978
-0.29718923
-0.2943368
-0.29106541
-0.28744299
-0.28351395
-0.27930693
-0.27483946
-0.27012242
-0.26516339
-0.25996792
-0.2545392
-0.24887398
-0.24297243
-0.23690426
-0.23072441
-0.2233971
-0.21314385
-0.3149825
-0.31227089
-0.30913492
-0.30566404
-0.30180628
-0.29764832
-0.293261
-0.28867733
-0.28391126
-0.27896783
-0.27384643
-0.26854336
-0.26305359
-0.25737075
-0.2514825
-0.24537721
-0.23911739
-0.23278063
-0.22516317
-0.2137813
-0.32917234
-0.32446696
-0.3197275
-0.31499325
-0.31001361
-0.30486198
-0.29961241
-0.29428572
-0.28888111
-0.28338918
-0.277795
-0.27208057
-0.26622726
-0.26021661
-0.25402663
-0.24763676
-0.24110675
-0.23456016
-0.22674447
-0.21446559
-0.34445504
-0.33764184
-0.33118713
-0.32509021
-0.31889444
-0.31265865
-0.30646202
-0.30031264
-0.29419208
-0.28807334
-0.28192356
-0.2757063
-0.26938383
-0.26291739
-0.25626254
-0.24937141
-0.2422683
-0.23505941
-0.2264874
-0.21304991
-0.36073173
-0.35168779
-0.34340162
-0.33583743
-0.32831918
-0.32089085
-0.31363669
-0.30654977
-0.29959154
-0.29271574
-0.28587123
-0.27900484
-0.27206425
-0.26499802
-0.25775031
-0.2502567
-0.24246007
-0.2341538
-0.22368703
-0.2080183
-0.20246661
-0.19351832
-0.18456508
-0.17567088
-0.16678202
-0.15794019
-0.14919889
-0.14059318
-0.13215235
-0.12390499
-0.11587691
-0.1080903
-0.10056428
-0.093315226
-0.086356718
-0.079699641
-0.073352289
-0.067320464
-0.061607578
-0.056214761
-0.051140985
-0.046383205
-0.041936505
-0.03779427
-0.033948356
-0.030389284
-0.027106426
-0.024088205
-0.021322288
-0.018795778
-0.016495398
-0.014407669
-0.012519074
-0.010816211
-0.0092859384
-0.0079155052
-0.0066926777
-0.0056058415
-0.0046441797
-0.0037975958
-0.0030575337
-0.0024149897
-0.0018676934
-0.0013990028
-0.0010445003
-0.00069462143
-0.00068792906
-8.0130539e-05
-0.0017060605
0.0024523322
-0.20347664
-0.1941311
-0.18506881
-0.17618895
-0.16728207
-0.15841005
-0.14964433
-0.14101636
-0.13255295
-0.12428327
-0.11623339
-0.10842539
-0.10087839
-0.093608814
-0.086630323
-0.07995386
-0.073587783
-0.067537955
-0.061807839
-0.056398607
-0.051309264
-0.046536785
-0.042076266
-0.037921094
-0.034063119
-0.030492848
-0.027199631
-0.024171865
-0.021397186
-0.018862661
-0.016554976
-0.014460611
-0.012566005
-0.010857717
-0.0093225597
-0.00794774
-0.0067209819
-0.0056306296
-0.0046658256
-0.0038164339
-0.0030738586
-0.0024290595
-0.0018797092
-0.0014091737
-0.0010527562
-0.00070154246
-0.00069133156
-8.5946565e-05
-0.0016915023
0.0024237448
-0.20559533
-0.19539916
-0.18611944
-0.17730826
-0.16837778
-0.15944509
-0.15063174
-0.14195975
-0.13344932
-0.12513173
-0.11703431
-0.10917901
-0.10158506
-0.094269225
-0.08724545
-0.080524897
-0.074116132
-0.068025203
-0.062255728
-0.056808999
-0.051684112
-0.046878103
-0.042386104
-0.038201509
-0.034316156
-0.030720517
-0.027403894
-0.024354618
-0.021560249
-0.019007769
-0.016683771
-0.014574635
-0.012666703
-0.010946428
-0.0094005212
-0.008016087
-0.0067807497
-0.0056827559
-0.0047111539
-0.0038557157
-0.003107755
-0.0024581466
-0.0019044451
-0.0014300103
-0.0010696179
-0.00071555449
-0.00069832171
-9.7436354e-05
-0.0016629256
0.002367184
-0.20866394
-0.19709107
-0.18749038
-0.17887817
-0.1699583
-0.16094891
-0.15208143
-0.1433605
-0.13479103
-0.12640942
-0.11824668
-0.11032482
-0.10266336
-0.095279924
-0.088189148
-0.08140272
-0.074929666
-0.068776441
-0.062946997
-0.057442895
-0.052263434
-0.047405798
-0.042865215
-0.038635128
-0.034707382
-0.031072421
-0.027719488
-0.024636826
-0.021811888
-0.019231531
-0.016882208
-0.014750153
-0.012821551
-0.011082696
-0.0095201417
-0.0081208315
-0.006872234
-0.0057624433
-0.0047803596
-0.0039156111
-0.0031593703
-0.0025023784
-0.0019420104
-0.0014616067
-0.0010951659
-0.00073672054
-0.00070899845
-0.00011455197
-0.0016210782
0.0022838741
-0.21245582
-0.19893633
-0.18891244
-0.180701
-0.17187712
-0.16279371
-0.15388318
-0.14512962
-0.13650655
-0.12805757
-0.11982221
-0.11182358
-0.10408166
-0.096615499
-0.089441141
-0.082571301
-0.076015847
-0.069781976
-0.063874261
-0.05829476
-0.053043169
-0.048116968
-0.043511599
-0.039220641
-0.035236009
-0.031548155
-0.028146281
-0.025018548
-0.022152288
-0.019534209
-0.017150593
-0.014987485
-0.013030869
-0.01126683
-0.0096817094
-0.0082622387
-0.0069956758
-0.0058699086
-0.0048736367
-0.0039962928
-0.0032288578
-0.0025618907
-0.0019925248
-0.0015040678
-0.0011294959
-0.00076511246
-0.00072350772
-0.00013719246
-0.0015671037
0.0021757004
-0.21662369
-0.20065445
-0.19011647
-0.18254359
-0.17396191
-0.1648361
-0.15590488
-0.14715313
-0.13850317
-0.13000021
-0.12169756
-0.11362285
-0.10579701
-0.098241006
-0.090973097
-0.08400779
-0.077356371
-0.071027241
-0.065025998
-0.059355548
-0.054016262
-0.049006154
-0.044321064
-0.039954855
-0.035899621
-0.032145907
-0.028682927
-0.025498792
-0.022580724
-0.019915279
-0.01748855
-0.015286366
-0.013294472
-0.011498704
-0.0098851433
-0.0084402604
-0.0071510516
-0.006005147
-0.0049909951
-0.0040977822
-0.0033162475
-0.0026367204
-0.0020560301
-0.0015574396
-0.0011726622
-0.00080077296
-0.00074200434
-0.00016521647
-0.00150245
0.0020451169
-0.22077002
-0.20206386
-0.19089076
-0.18412823
-0.17601217
-0.16694913
-0.15803147
-0.14931882
-0.14068503
-0.13215946
-0.12380786
-0.11566771
-0.1077633
-0.10011793
-0.0927528
-0.085685191
-0.078928593
-0.072493224
-0.066386229
-0.060611806
-0.055171374
-0.050063781
-0.045285511
-0.040830909
-0.036692401
-0.032860738
-0.02932523
-0.026073988
-0.023094161
-0.020372162
-0.017893891
-0.015644942
-0.013610796
-0.011777002
-0.010129344
-0.0086539831
-0.007337609
-0.0061675458
-0.005131942
-0.0042196899
-0.003421239
-0.0027266433
-0.0021323668
-0.0016216187
-0.0012246141
-0.00084368095
-0.00076462514
-0.00019847315
-0.0014287665
0.001895013
-0.22463395
-0.20356019
-0.19145963
-0.18526749
-0.17781366
-0.16904541
-0.16021935
-0.15157049
-0.14299016
-0.13447971
-0.12610394
-0.11791298
-0.10993887
-0.10220843
-0.094746216
-0.087573022
-0.080705347
-0.074155849
-0.067933722
-0.062044889
-0.056492195
-0.051275631
-0.046392588
-0.041838099
-0.037605096
-0.033684668
-0.030066321
-0.026738242
-0.023687549
-0.020900541
-0.018362936
-0.016060088
-0.013977197
-0.012099501
-0.01041245
-0.0089018635
-0.0075540808
-0.0063560776
-0.0052956587
-0.0043613777
-0.0035433493
-0.0028313096
-0.0022212978
-0.001696465
-0.0012852971
-0.00089383878
-0.00079155932
-0.00023687072
-0.0013478531
0.0017286783
-0.22587328
-0.20538811
-0.19251864
-0.18589769
-0.17893127
-0.17074463
-0.16219504
-0.15367529
-0.14520197
-0.13676857
-0.12842271
-0.12022227
-0.11221039
-0.10441973
-0.096878806
-0.089612506
-0.082641196
-0.075980811
-0.069643323
-0.063637047
-0.057966851
-0.05263441
-0.047638486
-0.042975204
-0.038638336
-0.034619589
-0.030908894
-0.027494692
-0.024364209
-0.021503732
-0.018898863
-0.016534759
-0.014396359
-0.012468592
-0.010736562
-0.0091857208
-0.0078020268
-0.0065720687
-0.0054832651
-0.0045237858
-0.0036833633
-0.0029513699
-0.0023233584
-0.0017824072
-0.0013550676
-0.00095146935
-0.00082319416
-0.00028011801
-0.0012618679
0.0015503821
-0.21601265
-0.20463421
-0.19363637
-0.18554899
-0.17849322
-0.17108083
-0.16313747
-0.15498361
-0.14679818
-0.13860723
-0.13043848
-0.12234942
-0.11439554
-0.10661978
-0.099057956
-0.091741633
-0.084697475
-0.077946948
-0.07150675
-0.065389236
-0.059602705
-0.054151702
-0.04903735
-0.044257683
-0.039807983
-0.035681117
-0.031867869
-0.028357268
-0.025136906
-0.022193245
-0.019511904
-0.017077932
-0.014876059
-0.012890925
-0.011107289
-0.0095102152
-0.0080852507
-0.0068185564
-0.0056971189
-0.0047086729
-0.003842517
-0.0030876045
-0.0024389446
-0.0018794972
-0.001433756
-0.0010160481
-0.00085933964
-0.0003265572
-0.0011733709
0.0013656267
-0.1938747
-0.19858181
-0.19330866
-0.18440443
-0.17690191
-0.16989423
-0.16239412
-0.1545371
-0.14658903
-0.1386131
-0.13062889
-0.12268928
-0.11485356
-0.10716906
-0.099674785
-0.092405232
-0.085390033
-0.078653447
-0.072214689
-0.066088377
-0.060284836
-0.054810401
-0.049667759
-0.044856298
-0.040372462
-0.036210096
-0.032360801
-0.028814276
-0.02555865
-0.022580805
-0.019866677
-0.017401541
-0.015170278
-0.013157611
-0.011348329
-0.0097274816
-0.0082805602
-0.006993642
-0.0058536016
-0.004848046
-0.0039660958
-0.0031965894
-0.0025340733
-0.0019619441
-0.0015019356
-0.0010746871
-0.00089046578
-0.00037295768
-0.0010829429
0.0011823154
-0.18332594
-0.18914687
-0.18567398
-0.17693537
-0.16973263
-0.16347668
-0.15677705
-0.14963391
-0.1423432
-0.13497995
-0.12755391
-0.12011365
-0.11272089
-0.10542668
-0.098273578
-0.091299896
-0.084539312
-0.07802009
-0.071765287
-0.065793156
-0.060117439
-0.054747646
-0.049689391
-0.044944743
-0.040512583
-0.036388963
-0.032567466
-0.029039561
-0.025794945
-0.022821882
-0.020107513
-0.017638158
-0.015399595
-0.013377306
-0.011556719
-0.0099234103
-0.0084633002
-0.0071628075
-0.0060090623
-0.004989874
-0.0040944346
-0.0033117639
-0.0026359661
-0.0020514545
-0.0015762495
-0.0011399625
-0.00092404253
-0.00042747034
-0.00098207837
0.00098467985
-0.17458782
-0.1778093
-0.17553233
-0.16851176
-0.16215944
-0.1565974
-0.15066455
-0.14425145
-0.13762477
-0.13087962
-0.12402788
-0.11711194
-0.11019229
-0.10332183
-0.096545219
-0.089903155
-0.083432224
-0.077163906
-0.071124551
-0.065335697
-0.059814305
-0.054572989
-0.049620307
-0.044961097
-0.040596813
-0.036525878
-0.032744043
-0.029244738
-0.026019425
-0.023057941
-0.020348815
-0.017879584
-0.015637078
-0.013607687
-0.011777604
-0.010133048
-0.0086604675
-0.00734671
-0.0061792327
-0.0051461084
-0.0042366414
-0.0034400827
-0.0027500674
-0.0021521561
-0.0016602844
-0.0012139466
-0.00096306123
-0.00048886426
-0.00087372756
0.00076820691
-0.16490971
-0.1655225
-0.16369114
-0.15874666
-0.15362427
-0.14880487
-0.14366312
-0.13806174
-0.1321781
-0.12611304
-0.11989422
-0.11356208
-0.10717375
-0.10078276
-0.094435621
-0.088175022
-0.082040041
-0.076065126
-0.070279817
-0.064708935
-0.059372743
-0.054287108
-0.049463741
-0.044910482
-0.040631615
-0.036628205
-0.032898438
-0.029437972
-0.02624029
-0.023297037
-0.020598359
-0.018133212
-0.015889668
-0.013855189
-0.012016883
-0.010361741
-0.0088768542
-0.0075495911
-0.0063678165
-0.0053199312
-0.0043954023
-0.0035837469
-0.0028781523
-0.0022653292
-0.0017551078
-0.001296843
-0.001008761
-0.00055461739
-0.00076544914
0.00054295624
-0.15434056
-0.15307349
-0.15126418
-0.14803458
-0.14420541
-0.14019085
-0.13584613
-0.13108871
-0.12600203
-0.12066915
-0.11513322
-0.10943724
-0.1036342
-0.097776502
-0.091911582
-0.086083385
-0.08033274
-0.07469649
-0.069207007
-0.063892181
-0.058775488
-0.053876071
-0.049208894
-0.044784971
-0.040611638
-0.036692844
-0.033029478
-0.0296197
-0.026459279
-0.023541938
-0.020859685
-0.018403132
-0.016161806
-0.014124436
-0.012279223
-0.010614085
-0.0091168854
-0.0077756334
-0.0065786981
-0.0055148863
-0.004573894
-0.0037455409
-0.003022621
-0.0023929381
-0.0018623939
-0.0013896864
-0.0010626416
-0.00062410041
-0.00066328102
0.00031703236
-0.14255409
-0.1404952
-0.13880044
-0.13684514
-0.13418682
-0.13100825
-0.12745065
-0.12351786
-0.11923199
-0.11464886
-0.1098194
-0.10478829
-0.099603947
-0.094316412
-0.088972959
-0.083617758
-0.078292273
-0.073034755
-0.067879644
-0.062857329
-0.057994078
-0.053312027
-0.048829243
-0.044559868
-0.040514319
-0.036699537
-0.033119263
-0.02977434
-0.026663037
-0.023781368
-0.021123425
-0.018681694
-0.016447367
-0.014410637
-0.012560978
-0.0108874
-0.0093786892
-0.0080236236
-0.0068111891
-0.0057306915
-0.0047721373
-0.003925694
-0.0031838458
-0.0025353993
-0.0019826585
-0.0014927932
-0.0011256849
-0.00069687202
-0.00057321562
9.9087812e-05
-0.12986019
-0.12793044
-0.12658374
-0.12554054
-0.12384584
-0.12147692
-0.11867962
-0.11552548
-0.11201135
-0.10816679
-0.10404172
-0.099682538
-0.095132197
-0.090435615
-0.085638704
-0.080785106
-0.075915931
-0.071069696
-0.066281898
-0.06158461
-0.057006239
-0.052571397
-0.048300873
-0.044211675
-0.040317157
-0.036627185
-0.033148366
-0.029884301
-0.026835866
-0.024001517
-0.021377596
-0.018958641
-0.016737691
-0.014706586
-0.012856242
-0.011176928
-0.009658503
-0.0082906501
-0.0070630938
-0.0059657413
-0.0049890047
-0.0041234515
-0.003361366
-0.0026924452
-0.0021158569
-0.0016060911
-0.0011985662
-0.0007725168
-0.0005011532
-0.00010156749
-0.11697452
-0.11562494
-0.11476689
-0.11437949
-0.11344034
-0.11180664
-0.10972011
-0.10728313
-0.10448898
-0.10134947
-0.097906714
-0.094205023
-0.090284246
-0.086183687
-0.08194442
-0.077608357
-0.073215631
-0.068804086
-0.064409201
-0.060063761
-0.055797486
-0.051636775
-0.047604571
-0.043720309
-0.039999947
-0.036456055
-0.033097972
-0.029931995
-0.026961619
-0.024187794
-0.021609205
-0.019222563
-0.017022893
-0.015003827
-0.013157884
-0.011476734
-0.0099514584
-0.0085727792
-0.0073312847
-0.006217592
-0.0052226223
-0.0043374042
-0.0035541505
-0.002863333
-0.0022615345
-0.0017292523
-0.001281661
-0.00085082474
-0.00045211383
-0.00027608381
-0.10444022
-0.10375717
-0.103415
-0.10352162
-0.10317053
-0.10217413
-0.10072919
-0.098939423
-0.096801367
-0.094317327
-0.091519631
-0.088447253
-0.085135535
-0.08161944
-0.077935464
-0.074121144
-0.070214204
-0.066251121
-0.062266519
-0.058292943
-0.054360529
-0.050496675
-0.046725795
-0.043069173
-0.039544904
-0.036167894
-0.032949941
-0.029899858
-0.027023643
-0.024324698
-0.021804057
-0.019460651
-0.017291573
-0.015292351
-0.013457217
-0.011779377
-0.010251257
-0.008864744
-0.0076114114
-0.0064826946
-0.0054701315
-0.0045652807
-0.0037604228
-0.0030467024
-0.0024187122
-0.0018616179
-0.0013749301
-0.00093179984
-0.00042946082
-0.00041731856
-0.092542912
-0.092445935
-0.092572194
-0.093066471
-0.093176729
-0.092715178
-0.091830883
-0.090613795
-0.089062736
-0.087175254
-0.084974594
-0.082492706
-0.079759667
-0.076805345
-0.073661776
-0.07036237
-0.066940893
-0.063431149
-0.059866148
-0.056277427
-0.0526947
-0.049145553
-0.04565514
-0.042245948
-0.038937646
-0.035747012
-0.032687924
-0.029771414
-0.027005776
-0.024396716
-0.021947538
-0.019659365
-0.017531367
-0.015561017
-0.013744336
-0.01207615
-0.010550334
-0.0091600468
-0.0078979532
-0.00675641
-0.0057276768
-0.0048039163
-0.0039776201
-0.0032405295
-0.0025858412
-0.002002146
-0.0014778417
-0.0010155535
-0.00043432031
-0.00052096478
-0.081422978
-0.08178201
-0.0822907
-0.083087572
-0.083558672
-0.083534228
-0.083125237
-0.082403809
-0.081368348
-0.080013486
-0.07835482
-0.076416938
-0.074224152
-0.07180106
-0.06917459
-0.066373774
-0.063428523
-0.060369032
-0.057225617
-0.054028056
-0.05080493
-0.047583266
-0.044388229
-0.041242835
-0.03816773
-0.035181031
-0.032298246
-0.029532256
-0.02689335
-0.024389313
-0.022025561
-0.019805302
-0.017729735
-0.015798264
-0.01400872
-0.0123576
-0.010840294
-0.009451312
-0.0081845011
-0.0070332287
-0.0059905734
-0.0050493771
-0.0042024823
-0.0034421846
-0.0027608392
-0.0021494062
-0.0015893431
-0.0011021494
-0.00046529054
-0.00058638585
-0.071140894
-0.07182787
-0.072622925
-0.073644835
-0.074391102
-0.074713788
-0.074695769
-0.074392567
-0.073800494
-0.072911766
-0.071735651
-0.070289815
-0.068592698
-0.066663582
-0.064524206
-0.062198737
-0.059712887
-0.057093175
-0.054366576
-0.05156025
-0.048700954
-0.045814491
-0.042925356
-0.040056439
-0.037228743
-0.034461166
-0.031770351
-0.029170598
-0.026673831
-0.024289625
-0.022025276
-0.019885914
-0.017874649
-0.015992748
-0.014239827
-0.012614057
-0.011112375
-0.0097306936
-0.0084641051
-0.0073070617
-0.0062535456
-0.0052971514
-0.0044312028
-0.0036485427
-0.0029411728
-0.0023016027
-0.0017078734
-0.0011914365
-0.00051854447
-0.00061690709
-0.061708569
-0.062616294
-0.063609038
-0.064784974
-0.065730978
-0.066319597
-0.066612844
-0.066652504
-0.066432435
-0.065942707
-0.065187368
-0.064177948
-0.062927318
-0.061449588
-0.059761413
-0.057882043
-0.055832651
-0.05363576
-0.051314818
-0.048893854
-0.046397112
-0.043848546
-0.04127137
-0.03868772
-0.03611835
-0.033582371
-0.031097039
-0.028677607
-0.026337227
-0.02408692
-0.021935578
-0.019890027
-0.017955121
-0.016133872
-0.014427602
-0.012836119
-0.0113579
-0.0099902797
-0.0087296355
-0.0075715578
-0.0065110013
-0.0055423815
-0.0046596205
-0.0038561323
-0.0031239714
-0.0024566243
-0.0018314229
-0.0012829178
-0.00058836671
-0.0006193744
-0.0531112
-0.054155529
-0.055271459
-0.056539465
-0.057619519
-0.058402348
-0.058934152
-0.059245828
-0.05932919
-0.059172615
-0.058775935
-0.058145488
-0.057289162
-0.056216283
-0.054938703
-0.053470915
-0.051829545
-0.050032903
-0.048100649
-0.04605344
-0.043912566
-0.041699569
-0.039435821
-0.037142135
-0.034838444
-0.032543509
-0.030274667
-0.028047635
-0.025876354
-0.0237729
-0.021747434
-0.019808204
-0.017961586
-0.016212169
-0.014562861
-0.013015027
-0.011568639
-0.010222442
-0.0089741097
-0.0078204025
-0.0067573002
-0.0057800992
-0.0048834219
-0.0040613007
-0.0033061613
-0.0026121187
-0.001957638
-0.0013756933
-0.00066805588
-0.00060296693
-0.045318
-0.046434652
-0.047614529
-0.048923596
-0.050082452
-0.0509979
-0.05170408
-0.052223446
-0.052546463
-0.052660429
-0.052561951
-0.052253165
-0.051737743
-0.051020812
-0.050109888
-0.049015044
-0.047748561
-0.04632458
-0.044758853
-0.043068468
-0.041271518
-0.039386746
-0.037433209
-0.035429896
-0.033395399
-0.031347596
-0.029303388
-0.027278456
-0.025287069
-0.023341941
-0.02145413
-0.019632988
-0.017886149
-0.016219563
-0.014637558
-0.013142933
-0.011737078
-0.010420095
-0.0091909408
-0.0080475557
-0.0069869769
-0.0060054301
-0.0050983236
-0.0042603688
-0.0034845971
-0.0027655848
-0.002083967
-0.0014684968
-0.00075100598
-0.00057748519
-0.038287591
-0.039428766
-0.040627484
-0.041937856
-0.043130959
-0.044127849
-0.044953564
-0.045624146
-0.046129422
-0.046456264
-0.046599006
-0.046556574
-0.04632927
-0.045918729
-0.045328743
-0.044565467
-0.0436372
-0.042554149
-0.041328253
-0.039972989
-0.038503111
-0.036934353
-0.035283119
-0.033566174
-0.031800321
-0.030002085
-0.028187441
-0.026371552
-0.024568549
-0.022791349
-0.021051508
-0.019359129
-0.017722796
-0.016149563
-0.014644967
-0.01321308
-0.011856584
-0.010576862
-0.0093741041
-0.008247413
-0.0071948955
-0.0062137407
-0.0053002085
-0.0044497547
-0.0036561746
-0.0029144682
-0.0022078235
-0.0015598097
-0.00083169887
-0.00055154504
-0.031972541
-0.033103946
-0.034288561
-0.03557079
-0.036763717
-0.037800992
-0.038700885
-0.039474685
-0.040112186
-0.040600429
-0.040932342
-0.041104565
-0.041114882
-0.040962198
-0.040647269
-0.04017294
-0.039544033
-0.0387672
-0.037850833
-0.036804934
-0.035640934
-0.034371469
-0.033010117
-0.031571142
-0.030069211
-0.028519105
-0.026935446
-0.025332435
-0.023723618
-0.02212168
-0.020538268
-0.018983854
-0.017467637
-0.015997477
-0.014579872
-0.013219961
-0.011921558
-0.010687207
-0.009518252
-0.0084149115
-0.0073763489
-0.0064007308
-0.0054852141
-0.0046260563
-0.0038179132
-0.0030562502
-0.00232674
-0.0016480139
-0.00090634137
-0.00053118716
-0.026322798
-0.027420968
-0.02856858
-0.029802064
-0.030969424
-0.032015355
-0.032953156
-0.033790668
-0.034518124
-0.035123204
-0.035598161
-0.035938173
-0.036139288
-0.036198427
-0.03611402
-0.035886265
-0.035517087
-0.03501008
-0.034370474
-0.033605081
-0.03272218
-0.031731366
-0.030643357
-0.029469778
-0.028222937
-0.02691558
-0.025560633
-0.024170954
-0.022759103
-0.021337122
-0.019916346
-0.018507236
-0.017119243
-0.015760717
-0.01443883
-0.013159546
-0.011927616
-0.010746585
-0.0096188376
-0.0085456302
-0.0075271404
-0.0065625027
-0.0056497906
-0.0047861061
-0.0039670137
-0.0031885218
-0.0024384818
-0.0017315364
-0.00097298978
-0.00051929066
-0.021287981
-0.022337965
-0.023433756
-0.024605194
-0.025729312
-0.026760413
-0.027708168
-0.028577953
-0.029360765
-0.030045262
-0.030623594
-0.031090152
-0.031439931
-0.031668545
-0.031772774
-0.03175082
-0.031602328
-0.031328384
-0.030931536
-0.030415792
-0.029786576
-0.029050635
-0.028215916
-0.027291412
-0.026286983
-0.025213157
-0.024080924
-0.022901505
-0.021686137
-0.020445862
-0.019191327
-0.017932611
-0.016679065
-0.015439188
-0.014220526
-0.013029599
-0.011871861
-0.010751672
-0.0096723025
-0.0086359391
-0.0076436998
-0.0066956489
-0.005790769
-0.0049270266
-0.0041009077
-0.0033090479
-0.0025411077
-0.0018089502
-0.0010311938
-0.0005158822
-0.016819278
-0.017812659
-0.018848145
-0.019950078
-0.021019644
-0.02201945
-0.022956512
-0.023834459
-0.024645242
-0.0253787
-0.026027294
-0.026585153
-0.02704677
-0.027407026
-0.027661647
-0.027807449
-0.02784239
-0.02776561
-0.027577489
-0.027279689
-0.026875159
-0.0263681
-0.025763896
-0.025069027
-0.024290937
-0.023437889
-0.022518801
-0.021543061
-0.020520334
-0.019460365
-0.0183728
-0.017266996
-0.016151869
-0.015035739
-0.013926214
-0.012830086
-0.011753259
-0.01070069
-0.0096763568
-0.0086832321
-0.0077232713
-0.0067974004
-0.0059054746
-0.0050463184
-0.0042173274
-0.0034158349
-0.0026329909
-0.0018790257
-0.0010813732
-0.00051909209
-0.012870495
-0.013803771
-0.014775332
-0.015804868
-0.0168137
-0.017771577
-0.018683545
-0.019551993
-0.020369901
-0.021128381
-0.021820473
-0.022440419
-0.02298263
-0.023441708
-0.023812818
-0.024091914
-0.024275805
-0.02436222
-0.024349882
-0.024238585
-0.024029231
-0.023723842
-0.023325542
-0.022838513
-0.022267924
-0.021619836
-0.020901076
-0.020119105
-0.019281859
-0.018397585
-0.017474671
-0.016521479
-0.015546186
-0.014556635
-0.013560196
-0.012563649
-0.011573086
-0.010593826
-0.0096303495
-0.0086862504
-0.0077641885
-0.0068658543
-0.0059919108
-0.0051420069
-0.0043144163
-0.0035072192
-0.0027128275
-0.0019407513
-0.0011242131
-0.00052630077
-0.0093996204
-0.010272825
-0.011180414
-0.012138079
-0.013083959
-0.013993919
-0.014871521
-0.015718254
-0.01652812
-0.017293505
-0.018008176
-0.018666734
-0.019263799
-0.019794025
-0.020252403
-0.020634449
-0.02093628
-0.021154681
-0.021287194
-0.021332207
-0.021289014
-0.021157857
-0.020939949
-0.020637467
-0.020253531
-0.01979215
-0.019258146
-0.018657064
-0.017995054
-0.017278746
-0.016515104
-0.015711287
-0.014874493
-0.014011827
-0.013130153
-0.012235973
-0.01133531
-0.010433606
-0.0095356348
-0.0086454224
-0.0077661801
-0.006900242
-0.0060489881
-0.0052128323
-0.0043908797
-0.0035819784
-0.0027796641
-0.0019933548
-0.0011602867
-0.00053505114
-0.0063686509
-0.0071844492
-0.0080307189
-0.0089196837
-0.009803543
-0.010663377
-0.011501601
-0.012319027
-0.013110614
-0.013869956
-0.014591605
-0.015270655
-0.015902118
-0.016480922
-0.01700216
-0.017461231
-0.01785392
-0.01817646
-0.018425623
-0.018598807
-0.018694113
-0.018710403
-0.018647346
-0.018505447
-0.018286058
-0.017991361
-0.017624339
-0.017188723
-0.016688913
-0.016129897
-0.015517138
-0.014856459
-0.014153917
-0.013415674
-0.01264787
-0.011856498
-0.011047279
-0.010225553
-0.0093961725
-0.0085634074
-0.0077308533
-0.0069013494
-0.0060768811
-0.0052585465
-0.0044462185
-0.0036395072
-0.0028329886
-0.0020363659
-0.0011899693
-0.00054353013
-0.0037453779
-0.0045079762
-0.0052972506
-0.0061223558
-0.0069472474
-0.0077574386
-0.0085544341
-0.009338516
-0.0101055
-0.01085008
-0.01156758
-0.012253644
-0.012903765
-0.01351328
-0.014077555
-0.0145921
-0.015052632
-0.015455134
-0.01579594
-0.016071813
-0.016280025
-0.016418424
-0.016485496
-0.01648041
-0.016403056
-0.016254061
-0.016034791
-0.015747331
-0.015394453
-0.01497956
-0.014506618
-0.013980069
-0.013404734
-0.012785706
-0.012128241
-0.011437637
-0.010719121
-0.0099777325
-0.0092182089
-0.0084448793
-0.0076615569
-0.0068714386
-0.0060769919
-0.0052799002
-0.0044807271
-0.0036798108
-0.0028727073
-0.0020695943
-0.0012134607
-0.00055061112
-0.0015041309
-0.002219332
-0.0029575638
-0.0037253556
-0.0044964266
-0.0052600031
-0.0060168514
-0.0067668217
-0.0075064673
-0.0082314489
-0.0089378013
-0.0096217142
-0.010279186
-0.010906017
-0.011497942
-0.012050718
-0.012560174
-0.013022261
-0.013433122
-0.013789167
-0.014087142
-0.014324202
-0.01449797
-0.014606606
-0.014648845
-0.014624048
-0.014532219
-0.014374024
-0.014150781
-0.013864442
-0.013517557
-0.013113225
-0.012655021
-0.012146919
-0.011593201
-0.010998358
-0.010366983
-0.0097036598
-0.009012853
-0.0082987901
-0.0075653477
-0.006815938
-0.0060533825
-0.0052798414
-0.0044964774
-0.0037042975
-0.002899773
-0.0020936185
-0.0012312681
-0.00055592139
0.00037919642
-0.00029442824
-0.00098782679
-0.0017051519
-0.0024281769
-0.0031492359
-0.0038684942
-0.0045854359
-0.0052972264
-0.0060003469
-0.0066914582
-0.0073672506
-0.0080242036
-0.0086585799
-0.0092665142
-0.0098440763
-0.010387308
-0.010892266
-0.011355077
-0.011771998
-0.012139482
-0.012454245
-0.012713325
-0.012914147
-0.013054584
-0.013133004
-0.013148318
-0.013100013
-0.012988168
-0.012813468
-0.012577194
-0.012281202
-0.011927882
-0.011520109
-0.011061174
-0.010554706
-0.010004587
-0.009414845
-0.0087895505
-0.0081327034
-0.0074481128
-0.0067392772
-0.0060092497
-0.0052605546
-0.0044948532
-0.0037137405
-0.0029145215
-0.0021084294
-0.0012432073
-0.0005589646
0.0019017879
0.0012619418
0.00060535823
-7.0364982e-05
-0.00075341865
-0.0014385814
-0.0021255224
-0.0028134286
-0.0034999557
-0.0041822493
-0.004857488
-0.0055227889
-0.0061750531
-0.0068109606
-0.0074270255
-0.0080196383
-0.0085850931
-0.0091196206
-0.0096194314
-0.010080766
-0.01049995
-0.010873451
-0.011197937
-0.011470343
-0.011687925
-0.011848325
-0.011949621
-0.011990375
-0.011969676
-0.011887164
-0.011743047
-0.011538105
-0.011273683
-0.010951661
-0.010574409
-0.010144735
-0.0096658082
-0.0091410781
-0.0085741739
-0.0079687979
-0.0073286076
-0.0066570933
-0.0059574386
-0.0052324295
-0.0044841226
-0.0037146039
-0.0029219082
-0.002117715
-0.001251883
-0.0005610555
0.0031044054
0.002492336
0.0018658853
0.0012242775
0.00057429735
-8.0791803e-05
-0.00074027411
-0.0014030862
-0.0020672547
-0.0027304428
-0.0033902396
-0.004044106
-0.004689289
-0.0053228183
-0.0059415366
-0.0065421251
-0.0071211237
-0.0076749557
-0.0081999612
-0.0086924373
-0.0091486832
-0.0095650502
-0.0099379961