/*--------------------------------*- C++ -*----------------------------------*\
  =========                 |
  \\      /  F ield         | OpenFOAM: The Open Source CFD Toolbox
   \\    /   O peration     | Website:  https://openfoam.org
    \\  /    A nd           | Version:  6
     \\/     M anipulation  |
\*---------------------------------------------------------------------------*/
FoamFile
{
    version     2.0;
    format      ascii;
    class       volScalarField;
    location    "229";
    object      pPrime2Mean;
}
// * * * * * * * * * * * * * * * * * * * * * * * * * * * * * * * * * * * * * //

dimensions      [0 4 -4 0 0 0 0];

internalField   nonuniform List<scalar> 
9200
(
0.04912325
0.040722879
0.033610789
0.028980464
0.025284325
0.02216885
0.019480378
0.01714054
0.015097171
0.013308501
0.011739939
0.010362497
0.0091517061
0.0080867853
0.0071499978
0.006326178
0.0056024882
0.0049682182
0.0044153938
0.0039336035
0.039843733
0.032968242
0.027218407
0.023438814
0.020406237
0.017842517
0.015626938
0.013697917
0.012013977
0.010541692
0.0092531578
0.0081247751
0.0071364166
0.0062707849
0.0055129201
0.004849849
0.0042703973
0.0037649324
0.0033244649
0.002936177
0.031142642
0.025733841
0.021263353
0.018284867
0.015875784
0.013829176
0.012055893
0.010510591
0.0091623096
0.0079857305
0.0069593041
0.0060644018
0.0052847592
0.0046060659
0.0040156732
0.0035024004
0.0030564244
0.0026690699
0.0023316183
0.0020326354
0.023261319
0.019214643
0.015902059
0.013652153
0.011809355
0.010231532
0.008858839
0.0076611804
0.0066175272
0.0057100244
0.004922776
0.0042414116
0.0036528696
0.0031452791
0.0027079089
0.0023311507
0.0020064965
0.0017263996
0.00148341
0.0012688722
0.016417189
0.013585879
0.011278559
0.0096649895
0.0083164998
0.0071474602
0.0061242257
0.0052304537
0.0044539873
0.0037833686
0.003207326
0.002714835
0.002295309
0.0019388109
0.0016362412
0.0013794675
0.0011613657
0.00097573847
0.00081685309
0.00067890189
0.010801857
0.0090002244
0.0075205891
0.0064345463
0.0054959223
0.0046659053
0.00393311
0.0032928802
0.0027403655
0.0022690637
0.0018710835
0.0015377717
0.0012603405
0.001030381
0.00084022552
0.0006831481
0.0005534105
0.00044619364
0.00035741531
0.00028348842
0.0065755429
0.0055841626
0.0047367721
0.0040564509
0.0034333529
0.0028648139
0.0023569751
0.0019142318
0.0015370539
0.001222233
0.00096397194
0.00075509496
0.00058805945
0.00045567588
0.00035153797
0.00027020734
0.00020721358
0.00015896537
0.00012271306
9.6363786e-05
0.0038629997
0.0034354797
0.0030146208
0.0026089285
0.0021996543
0.0018090634
0.0014554179
0.0011490941
0.0008936605
0.00068751677
0.0005257845
0.00040202309
0.00030949827
0.00024197225
0.00019409455
0.00016150803
0.00014077937
0.00012927996
0.00012518808
0.0001272808
0.0027500514
0.0026205214
0.0024168861
0.002148846
0.0018471863
0.0015474296
0.0012737972
0.0010391716
0.00084791457
0.0006985048
0.00058605494
0.00050433219
0.00044708913
0.00040878515
0.00038486271
0.00037175174
0.00036673825
0.00036782083
0.00037367963
0.00038345004
0.0032798777
0.0031719715
0.0029776912
0.0027079886
0.0024062764
0.002108923
0.0018393229
0.0016092627
0.0014217759
0.0012742176
0.0011610539
0.0010759042
0.0010127353
0.00096640636
0.00093280838
0.00090878188
0.00089195129
0.00088056722
0.00087339144
0.00086947934
0.11657706
0.098045313
0.081031354
0.07027294
0.061730688
0.054560703
0.048387706
0.043009235
0.03829995
0.03416134
0.03051293
0.027288091
0.024431017
0.02189453
0.019638457
0.017628389
0.015834715
0.014230913
0.01279208
0.011503815
0.11509281
0.096702108
0.079883027
0.069248212
0.060812989
0.053734417
0.047640533
0.042332208
0.037685539
0.033602965
0.03000477
0.026824971
0.024008315
0.021508108
0.019284606
0.017303791
0.01553644
0.013956421
0.012538688
0.011269336
0.11206531
0.094042775
0.077644766
0.067274446
0.059058353
0.052165087
0.046230693
0.04106228
0.036539198
0.032566233
0.029065533
0.025972633
0.023233551
0.020802681
0.018641217
0.016715973
0.014998517
0.013463492
0.012085935
0.010852194
0.10754747
0.090131906
0.074381243
0.064412916
0.056522254
0.049902944
0.044204171
0.03924186
0.034900236
0.031087749
0.027729464
0.024763287
0.022137202
0.019807259
0.017736072
0.015891674
0.014246741
0.012777035
0.011458097
0.010276112
0.10166266
0.085080477
0.070186991
0.060748173
0.053280547
0.047016382
0.041623083
0.036927676
0.032820702
0.029215453
0.026040877
0.023238036
0.02075752
0.018557566
0.016602636
0.014862331
0.013310665
0.011924786
0.010681432
0.0095664441
0.09457853
0.079035473
0.065184609
0.056388246
0.049429481
0.043591633
0.03856503
0.03418979
0.030364029
0.027006912
0.024052123
0.021444574
0.019138038
0.01709341
0.015277394
0.013661459
0.012221143
0.0109351
0.009782059
0.0087479316
0.086498654
0.072173163
0.059519215
0.051459827
0.045081365
0.039728885
0.03511968
0.031108588
0.027602382
0.02452698
0.02182152
0.019435375
0.017326012
0.015457421
0.013798907
0.012324107
0.011010258
0.0098375369
0.0087872366
0.0078462598
0.077655106
0.064692857
0.053353778
0.046104365
0.040361091
0.035539143
0.031385962
0.027772338
0.024614564
0.021846022
0.019411903
0.017266554
0.015371589
0.013694486
0.012207505
0.010886764
0.009711475
0.0086634203
0.0077267946
0.0068904044
0.068300089
0.056809473
0.046863228
0.040472893
0.035401514
0.031140133
0.027468452
0.024273971
0.021483158
0.01903741
0.01688845
0.014996017
0.013326242
0.011850435
0.010544126
0.0093862376
0.0083583302
0.0074441536
0.0066311892
0.0059102026
0.058696793
0.048747529
0.040228215
0.034719453
0.030337053
0.026650282
0.023471832
0.020706166
0.01829033
0.016174098
0.014316029
0.012681514
0.011241427
0.0099711051
0.0088495566
0.0078588004
0.0069833545
0.006210166
0.005531086
0.0049372801
0.010144798
0.0087899735
0.0076412909
0.0066441228
0.0057923505
0.0050628234
0.0044354538
0.0038930105
0.0034214847
0.0030095007
0.0026478463
0.002329141
0.0020474601
0.0017979855
0.0015767443
0.001380418
0.0012061963
0.0010516675
0.00091473666
0.00079356552
0.00068652616
0.0005921656
0.00050917838
0.00043638517
0.00037271628
0.00031719878
0.0002689464
0.00022715148
0.00019107842
0.0001600583
0.00013348424
0.00011080725
9.1532496e-05
7.5215673e-05
6.1459632e-05
4.9910934e-05
4.0256682e-05
3.2221099e-05
2.5562725e-05
2.0070543e-05
1.5563065e-05
1.1880124e-05
8.89444e-06
6.4731211e-06
4.5640312e-06
2.9915437e-06
1.9037563e-06
8.7552925e-07
1.1535961e-06
1.9075669e-06
0.0099479865
0.0086381057
0.007522292
0.0065503747
0.0057193369
0.0050065473
0.0043921195
0.0038594733
0.0033953167
0.002988843
0.0026313148
0.0023157427
0.0020364908
0.0017889388
0.0015692477
0.0013741899
0.0012010176
0.0010473625
0.00091116147
0.00079060071
0.00068407164
0.00059013715
0.00050750505
0.0004350072
0.00037158342
0.00031626891
0.0002681843
0.00022652778
0.00019056873
0.00015964239
0.00013314538
0.00011053165
9.1308786e-05
7.5034501e-05
6.1313312e-05
4.9793152e-05
4.0162252e-05
3.2145761e-05
2.5502981e-05
2.0023528e-05
1.5526427e-05
1.1851945e-05
8.8731577e-06
6.4574922e-06
4.5530417e-06
2.9844003e-06
1.899986e-06
8.7329752e-07
1.1467009e-06
1.8707125e-06
0.00960164
0.0083726363
0.0073163181
0.0063907247
0.0055969303
0.0049136647
0.0043216638
0.0038056464
0.0033537418
0.0029562701
0.0026053868
0.0022948052
0.0020193923
0.0017748636
0.0015576021
0.0013645283
0.0011929941
0.0010407007
0.00090563533
0.00078602262
0.00068028457
0.00058700907
0.00050492488
0.00043288165
0.00036983428
0.0003148308
0.0002670028
0.00022555771
0.0001897727
0.00015898957
0.00013261038
0.0001100936
9.0950559e-05
7.4742034e-05
6.1075059e-05
4.959962e-05
4.000563e-05
3.2019609e-05
2.5401984e-05
1.9943294e-05
1.5463329e-05
1.1802992e-05
8.8358974e-06
6.429938e-06
4.5335917e-06
2.9717254e-06
1.8933973e-06
8.6937098e-07
1.1329231e-06
1.7987256e-06
0.0091270317
0.0080099615
0.0070381551
0.0061794902
0.0054379155
0.0047947438
0.0042324809
0.0037380109
0.0033016685
0.0029155054
0.0025729446
0.0022686201
0.0019980339
0.0017573169
0.0015431225
0.0013525516
0.0011830795
0.0010324944
0.00089884812
0.00078041486
0.00067565643
0.00058319336
0.00050178167
0.00043029405
0.00036770489
0.00031307874
0.00026556111
0.00022437116
0.00018879587
0.0001581852
0.00013194798
0.00010954823
9.0501812e-05
7.4373223e-05
6.0772496e-05
4.9352063e-05
3.9803805e-05
3.1855851e-05
2.5269931e-05
1.983766e-05
1.5379712e-05
1.1737731e-05
8.7859674e-06
6.3928646e-06
4.5073596e-06
2.9546581e-06
1.8845527e-06
8.6423165e-07
1.1122575e-06
1.6952973e-06
0.0085450905
0.0075667821
0.0067030182
0.0059312459
0.005255115
0.004659978
0.0041322633
0.0036622678
0.0032433159
0.0028697411
0.0025365078
0.0022392631
0.001974179
0.0017378247
0.0015271414
0.0013394257
0.001172291
0.001023627
0.0008915624
0.00077443165
0.00067074505
0.00057916282
0.00049847385
0.00042757831
0.00036547364
0.00031124361
0.00026404977
0.00022312461
0.00018776612
0.00015733332
0.00013124239
0.00010896336
9.0016917e-05
7.3971431e-05
6.0440033e-05
4.9077632e-05
3.9578081e-05
3.1671097e-05
2.5119688e-05
1.971651e-05
1.5283103e-05
1.1661829e-05
8.7275699e-06
6.3493249e-06
4.476471e-06
2.9346347e-06
1.8741415e-06
8.5849633e-07
1.0849031e-06
1.5658475e-06
0.0078737098
0.0070582795
0.0063246316
0.0056578522
0.0050578971
0.0045159011
0.0040252414
0.0035812338
0.0031807474
0.0028206564
0.0024975638
0.0022081151
0.0019491239
0.0017175958
0.0015107725
0.0013261632
0.0011615383
0.0010149065
0.00088448866
0.00076869217
0.00066608564
0.00057537666
0.00049539276
0.00042506582
0.00036341942
0.00030955877
0.00026266296
0.00022197877
0.00018681577
0.00015654227
0.0001305819
0.00010841057
8.9553588e-05
7.3582952e-05
6.0114599e-05
4.880562e-05
3.9351554e-05
3.148344e-05
2.4965325e-05
1.9590701e-05
1.5181796e-05
1.1581549e-05
8.6653559e-06
6.3027003e-06
4.4432689e-06
2.9132286e-06
1.8628857e-06
8.528227e-07
1.0511824e-06
1.4169548e-06
0.0071303654
0.006499644
0.0059152194
0.005366474
0.0048493259
0.0043631232
0.0039109369
0.0034943839
0.003113911
0.0027687204
0.0024569599
0.0021762476
0.0019240425
0.0016978165
0.001495156
0.001313825
0.0011517859
0.0010071949
0.0008783874
0.00076386001
0.00066225197
0.00057232697
0.00049295738
0.000423111
0.0003618402
0.00030827327
0.00026160768
0.00022110478
0.00018608556
0.00015592723
0.00013006027
0.0001079658
8.9173035e-05
7.3256862e-05
5.9835331e-05
4.8567061e-05
3.9148685e-05
3.1312034e-05
2.4821729e-05
1.9471704e-05
1.508454e-05
1.1503476e-05
8.6041932e-06
6.2565046e-06
4.4101621e-06
2.892036e-06
1.8514802e-06
8.4784376e-07
1.011532e-06
1.2557373e-06
0.0063368261
0.0059082247
0.0054841599
0.0050560916
0.0046229512
0.0041949025
0.0037843679
0.0033987669
0.0030415972
0.0027139719
0.0024154825
0.002144825
0.0019002454
0.0016798056
0.0014815395
0.0013035473
0.0011440433
0.0010013737
0.00087401787
0.00076058265
0.00065979161
0.00057047364
0.00049155159
0.00042203249
0.00036099915
0.00030760343
0.00026106093
0.0002206468
0.00018569238
0.00015558254
0.00012975332
0.0001076897
8.8923531e-05
7.30314e-05
5.9632362e-05
4.8385574e-05
3.8987875e-05
3.1171121e-05
2.4699846e-05
1.9367857e-05
1.4997624e-05
1.1432293e-05
8.5474995e-06
6.2131755e-06
4.3787737e-06
2.8721122e-06
1.840264e-06
8.4397489e-07
9.664485e-07
1.0893431e-06
0.0055146585
0.0052915269
0.0050216214
0.0047042267
0.0043543441
0.0039913062
0.0036310712
0.0032840929
0.0029563704
0.0026509396
0.0023690133
0.0021106576
0.0018751968
0.0016615069
0.0014682317
0.0012939253
0.0011371374
0.00099646154
0.00087056062
0.00075817782
0.00065813903
0.00056935019
0.00049079265
0.00042151787
0.0003606425
0.00030734405
0.00026085744
0.00022047218
0.0001855301
0.00015542354
0.00012959365
0.00010752874
8.8762675e-05
7.2873066e-05
5.9479313e-05
4.8240469e-05
3.8852987e-05
3.1048203e-05
2.4590083e-05
1.9271886e-05
1.4915608e-05
1.1364008e-05
8.4924091e-06
6.1707124e-06
4.3477178e-06
2.8525576e-06
1.8284688e-06
8.4100659e-07
9.1665204e-07
9.2510798e-07
0.004696477
0.0046306648
0.004483801
0.0042702373
0.0040124148
0.0037287659
0.0034327875
0.0031358119
0.002846332
0.0025698032
0.0023094684
0.0020671132
0.0018434626
0.0016384727
0.0014515972
0.0012819925
0.0011286526
0.00099049711
0.00086642837
0.0007553662
0.00065626768
0.00056813694
0.00049002933
0.00042105244
0.00036036557
0.00030717862
0.00026075097
0.00022039036
0.00018545203
0.00015533791
0.00012949576
0.00010741826
8.8641904e-05
7.2745693e-05
5.9349516e-05
4.8112322e-05
3.8730087e-05
3.0933478e-05
2.4485714e-05
1.9179325e-05
1.4835664e-05
1.1296934e-05
8.4380101e-06
6.1286643e-06
4.3168251e-06
2.8332197e-06
1.8159913e-06
8.3873591e-07
8.6402901e-07
7.7073921e-07
0.003806284
0.0038316595
0.0037850593
0.003670853
0.0035103254
0.0033169164
0.0030998737
0.0028692905
0.0026344786
0.0024022927
0.0021774726
0.0019632975
0.001761876
0.0015743578
0.001401187
0.0012423239
0.001097405
0.00096585672
0.00084697777
0.00073999717
0.00064411254
0.00055851525
0.00048240659
0.00041500817
0.00035556861
0.00030336794
0.0002577207
0.00021797814
0.00018352978
0.00015380458
0.00012827164
0.00010644042
8.7860649e-05
7.2121699e-05
5.8851612e-05
4.7715743e-05
3.8415091e-05
3.0684283e-05
2.4289652e-05
1.9026225e-05
1.4717289e-05
1.1206771e-05
8.370507e-06
6.0801879e-06
4.282549e-06
2.8134172e-06
1.8015245e-06
8.3742908e-07
8.0929188e-07
6.3484655e-07
0.0029503336
0.0030259277
0.0030419936
0.0029985955
0.0029127519
0.0027942945
0.0026486816
0.0024836682
0.0023075731
0.0021269543
0.0019467093
0.0017706109
0.0016014417
0.0014410766
0.0012906658
0.0011508228
0.0010217661
0.00090342724
0.00079553622
0.00069768632
0.00060938099
0.00053006752
0.00045916111
0.0003960622
0.00034016909
0.00029088724
0.0002476364
0.00020985611
0.00017701001
0.00014858926
0.00012411502
0.00010314034
8.5251296e-05
7.0067498e-05
5.7242085e-05
4.6461159e-05
3.7442818e-05
2.9935736e-05
2.3717724e-05
1.8593232e-05
1.4393052e-05
1.0967605e-05
8.1969507e-06
5.958603e-06
4.1984379e-06
2.7632358e-06
1.7657669e-06
8.2916135e-07
7.3947492e-07
5.0562931e-07
0.0022141917
0.0023227727
0.0023826716
0.0023937442
0.0023664604
0.0023079882
0.0022216707
0.002113012
0.0019888497
0.0018550375
0.0017162271
0.0015762716
0.0014382738
0.0013045626
0.0011767926
0.0010560839
0.00094313524
0.0008383157
0.00074174304
0.00065334824
0.00057292541
0.00050017008
0.00043470843
0.00037611974
0.00032395362
0.00027774351
0.0002370173
0.00020130585
0.00017014985
0.00014310533
0.00011974804
9.9676766e-05
8.2515865e-05
6.7916867e-05
5.5559424e-05
4.5151599e-05
3.6429598e-05
2.9156992e-05
2.3123757e-05
1.8144339e-05
1.4057473e-05
1.0720485e-05
8.0178245e-06
5.8333342e-06
4.1114933e-06
2.7117654e-06
1.7272923e-06
8.2197452e-07
6.6358251e-07
3.8427705e-07
0.0015955035
0.0017211478
0.0018080147
0.0018569214
0.0018725924
0.0018597794
0.0018206629
0.0017588257
0.0016793348
0.0015870075
0.001485946
0.001379746
0.0012715032
0.0011637273
0.001058362
0.00095686833
0.00086030248
0.0007693837
0.0006845577
0.00060605368
0.00053393172
0.00046812126
0.00040845224
0.00035468025
0.00030650675
0.00026359545
0.00022558569
0.00019210344
0.0001627703
0.00013721096
0.00011505922
9.5962848e-05
7.9587295e-05
6.5618487e-05
5.3764737e-05
4.3757883e-05
3.5353781e-05
2.8332167e-05
2.2496245e-05
1.7671314e-05
1.3704747e-05
1.0461337e-05
7.8303422e-06
5.7023466e-06
4.020455e-06
2.657677e-06
1.6858306e-06
8.1460843e-07
5.870889e-07
2.8034747e-07
0.0010979216
0.0012242956
0.001322569
0.0013934325
0.0014373553
0.0014567423
0.0014528833
0.0014278649
0.0013850224
0.0013279515
0.0012599919
0.0011842401
0.0011035188
0.0010202698
0.00093651474
0.00085388185
0.00077364719
0.000696775
0.00062396132
0.00055567787
0.00049221196
0.00043370104
0.00038016235
0.00033151811
0.00028761667
0.00024825036
0.00021317046
0.00018209985
0.00015474365
0.00013079819
0.00010995845
9.1924143e-05
7.6404686e-05
6.312299e-05
5.1818336e-05
4.2248366e-05
3.4190326e-05
2.7441608e-05
2.1819881e-05
1.7162333e-05
1.3325828e-05
1.0183297e-05
7.6293791e-06
5.5617938e-06
3.9226169e-06
2.598806e-06
1.6403399e-06
8.0568826e-07
5.1311322e-07
1.9884837e-07
0.00071683565
0.0008308435
0.00092743365
0.0010063581
0.0010653815
0.0011048409
0.0011250936
0.001127048
0.0011125542
0.001083973
0.0010437634
0.00099437021
0.00093815884
0.000877306
0.00081372601
0.00074905208
0.00068464243
0.00062159452
0.00056076694
0.00050280693
0.00044817904
0.00039719253
0.00035002641
0.00030675219
0.00026735387
0.00023174563
0.00019978713
0.00017129683
0.00014606359
0.00012385656
0.00010443361
8.7548531e-05
7.2956826e-05
6.0420529e-05
4.9711898e-05
4.0616217e-05
3.2933762e-05
2.6481009e-05
2.1091329e-05
1.6614833e-05
1.2918752e-05
9.8848396e-06
7.413755e-06
5.4106786e-06
3.8172498e-06
2.534318e-06
1.5906436e-06
7.9422449e-07
4.44214e-07
1.415074e-07
0.00043988699
0.0005335024
0.00061896813
0.00069505225
0.00075820674
0.00080727988
0.00084172218
0.00086149198
0.00086725904
0.00086027271
0.00084209844
0.0008144645
0.00077917124
0.00073799301
0.00069259212
0.00064446842
0.00059493682
0.00054511902
0.00049594535
0.00044816531
0.0004023631
0.0003589754
0.00031830976
0.00028056257
0.00024583615
0.00021415458
0.00018547807
0.00015971592
0.00013673819
0.0001163859
9.8479999e-05
8.2829151e-05
6.9236266e-05
5.7503986e-05
4.7439126e-05
3.8856159e-05
3.1579847e-05
2.5447078e-05
2.0308104e-05
1.6026972e-05
1.2482174e-05
9.5649669e-06
7.1827276e-06
5.2483721e-06
3.7039254e-06
2.4636312e-06
1.5368438e-06
7.7932233e-07
3.8235067e-07
1.0693929e-07
0.00025109658
0.00032092267
0.00038965823
0.00045545089
0.00051447334
0.00056475366
0.00060504443
0.00063458349
0.00065316737
0.00066113991
0.00065925323
0.00064853434
0.00063019033
0.00060552096
0.00057583793
0.00054240293
0.00050638462
0.00046883235
0.00043066217
0.00039265216
0.00035544505
0.00031955554
0.00028538052
0.00025321101
0.00022324468
0.00019559854
0.00017032114
0.00014740418
0.00012679333
0.00010839805
9.2100579e-05
7.7763776e-05
6.5238071e-05
5.4367362e-05
4.4993967e-05
3.6962654e-05
3.0123832e-05
2.433593e-05
1.9467147e-05
1.5396418e-05
1.2014353e-05
9.2223971e-06
6.9353694e-06
5.0741629e-06
3.5822001e-06
2.3862562e-06
1.4791612e-06
7.6028269e-07
3.286468e-07
9.098466e-08
0.00013374163
0.00017974609
0.00022943054
0.00028073585
0.0003301732
0.00037551534
0.00041513569
0.00044781508
0.00047276885
0.00048967705
0.00049862776
0.000500028
0.00049452563
0.00048293817
0.00046618306
0.0004452171
0.00042098798
0.00039439661
0.00036627099
0.00033735029
0.00030827633
0.00027959112
0.00025173879
0.00022507071
0.00019985265
0.00017627329
0.00015445334
0.00013445482
0.00011629026
9.9931545e-05
8.5318118e-05
7.236461e-05
6.0967666e-05
5.101197e-05
4.2375449e-05
3.4933653e-05
2.8563337e-05
2.3145287e-05
1.8566495e-05
1.4721597e-05
1.1514102e-05
8.8562744e-06
6.6710992e-06
4.8876635e-06
3.4519092e-06
2.302052e-06
1.4180404e-06
7.3683481e-07
2.8346248e-07
8.7761627e-08
7.2034978e-05
9.6323983e-05
0.00012708161
0.0001623499
0.00019926563
0.0002357293
0.00027004717
0.00030080834
0.00032691248
0.00034761771
0.00036253342
0.00037157537
0.00037491496
0.00037292866
0.00036614557
0.00035519554
0.00034076318
0.00032354899
0.0003042374
0.00028347294
0.00026184385
0.00023987177
0.00021800628
0.00019662344
0.00017602743
0.00015645438
0.00013807777
0.00012101476
0.00010533318
9.1058608e-05
7.8181447e-05
6.6663715e-05
5.6445384e-05
4.7450168e-05
3.959069e-05
3.2772962e-05
2.690019e-05
2.1875883e-05
1.7606342e-05
1.4002494e-05
1.0981376e-05
8.4666107e-06
6.3900096e-06
4.6890518e-06
3.3133379e-06
2.211348e-06
1.3541652e-06
7.0921237e-07
2.4657153e-07
9.1102759e-08
5.2095064e-05
5.7906822e-05
7.1443638e-05
9.1022718e-05
0.00011447978
0.00014004995
0.00016620114
0.0001915514
0.00021490687
0.00023532007
0.00025211072
0.00026485463
0.00027336054
0.0002776419
0.0002778834
0.00027440362
0.00026761724
0.00025800013
0.00024605854
0.00023230265
0.00021722558
0.00020128791
0.00018490661
0.00016844826
0.00015222547
0.0001364963
0.00012146565
0.00010728843
9.407377e-05
8.1890011e-05
7.0770126e-05
6.0717258e-05
5.1710178e-05
4.3708489e-05
3.6657444e-05
3.0492277e-05
2.5142004e-05
2.0532648e-05
1.6589915e-05
1.3241287e-05
1.0417721e-05
8.0545872e-06
6.0930696e-06
4.4791987e-06
3.1672979e-06
2.1149783e-06
1.2884323e-06
6.781309e-07
2.1736495e-07
9.590289e-08
6.2331637e-05
5.3291532e-05
5.2160717e-05
5.7593228e-05
6.8076583e-05
8.2253982e-05
9.8880554e-05
0.00011675196
0.00013474488
0.00015187902
0.00016735177
0.00018054823
0.00019103966
0.00019857503
0.00020306563
0.00020456335
0.00020323493
0.00019933503
0.00019318019
0.00018512468
0.00017553914
0.0001647926
0.00015323841
0.00014120357
0.00012898139
0.00011682685
0.00010495454
9.353849e-05
8.2713627e-05
7.257838e-05
6.3198135e-05
5.4609203e-05
4.6823072e-05
3.9830707e-05
3.3606729e-05
2.8113339e-05
2.3303893e-05
1.9126048e-05
1.552447e-05
1.2443055e-05
9.8267626e-06
7.6228774e-06
5.782319e-06
4.2597626e-06
3.0151556e-06
2.0142346e-06
1.2218712e-06
6.446408e-07
1.9496614e-07
9.8927627e-08
9.3433478e-05
7.3067697e-05
6.0121813e-05
5.3574512e-05
5.2460111e-05
5.5818311e-05
6.2730195e-05
7.2243545e-05
8.3406709e-05
9.5327107e-05
0.00010720965
0.00011837689
0.00012828079
0.0001365087
0.00014278254
0.00014695108
0.00014897657
0.00014891799
0.00014691225
0.00014315518
0.000137883
0.00013135528
0.00012384005
0.00011560151
0.00010689016
9.7935614e-05
8.8941491e-05
8.0082542e-05
7.1503438e-05
6.3319025e-05
5.5615706e-05
4.8453672e-05
4.1869703e-05
3.5880325e-05
3.0485104e-05
2.5669931e-05
2.1410147e-05
1.7673424e-05
1.4422337e-05
1.1616565e-05
9.214764e-06
7.1760137e-06
5.4610911e-06
4.0332947e-06
2.8588613e-06
1.9108081e-06
1.1555843e-06
6.0995717e-07
1.7829698e-07
9.8898184e-08
0.00013814595
0.00010960763
8.7634394e-05
7.1480374e-05
6.0603144e-05
5.4382428e-05
5.220609e-05
5.3389188e-05
5.7196452e-05
6.2892102e-05
6.9775171e-05
7.7201701e-05
8.4602145e-05
9.1495456e-05
9.7497983e-05
0.00010232627
0.00010579429
0.00010780635
0.00010834665
0.00010746683
0.00010527226
0.00010190829
9.754687e-05
9.2374594e-05
8.6582202e-05
8.0355934e-05
7.387073e-05
6.7285213e-05
6.0738377e-05
5.4347747e-05
4.8208822e-05
4.2395542e-05
3.696157e-05
3.1942146e-05
2.7356338e-05
2.320948e-05
1.9495677e-05
1.6200235e-05
1.3301931e-05
1.0775056e-05
8.5912084e-06
6.7207935e-06
5.134269e-06
3.8033672e-06
2.7009894e-06
1.8067293e-06
1.0907006e-06
5.7528832e-07
1.6612213e-07
9.5972956e-08
0.00019095789
0.0001569075
0.00012841876
0.00010496132
8.6297362e-05
7.2073461e-05
6.1934583e-05
5.5439508e-05
5.2071625e-05
5.127789e-05
5.2497423e-05
5.5180745e-05
5.8807167e-05
6.2901434e-05
6.7047354e-05
7.0897e-05
7.4175395e-05
7.6681148e-05
7.8283571e-05
7.8916888e-05
7.8572252e-05
7.7288368e-05
7.5141455e-05
7.2235177e-05
6.8691122e-05
6.4640215e-05
6.0215291e-05
5.5545009e-05
5.0749119e-05
4.5935068e-05
4.1195821e-05
3.6608765e-05
3.2235531e-05
2.8122541e-05
2.4302121e-05
2.0793995e-05
1.760702e-05
1.4741019e-05
1.2188614e-05
9.9369656e-06
7.9693743e-06
6.2667084e-06
4.8085834e-06
3.5747538e-06
2.5448332e-06
1.704373e-06
1.0284058e-06
5.4174949e-07
1.5717118e-07
9.1003447e-08
0.00024777459
0.00021036001
0.00017749391
0.00014880568
0.00012426081
0.0001037003
8.6966325e-05
7.3818134e-05
6.3933464e-05
5.6937011e-05
5.2421302e-05
4.9960697e-05
4.912549e-05
4.9497201e-05
5.068291e-05
5.2326998e-05
5.4119881e-05
5.5803706e-05
5.7175067e-05
5.8084876e-05
5.843574e-05
5.8177323e-05
5.7300254e-05
5.5829121e-05
5.3815084e-05
5.1328559e-05
4.8452348e-05
4.5275466e-05
4.1887881e-05
3.8376223e-05
3.4820514e-05
3.1291866e-05
2.7851071e-05
2.4547968e-05
2.1421456e-05
1.8500018e-05
1.580262e-05
1.3339852e-05
1.1115212e-05
9.1264362e-06
7.3667901e-06
5.8263187e-06
4.4928993e-06
3.353627e-06
2.3945323e-06
1.6065131e-06
9.7002059e-07
5.1035283e-07
1.5032519e-07
8.4929243e-08
0.00030561967
0.00026651182
0.00023100941
0.00019885623
0.00017014167
0.00014483862
0.00012292883
0.0001043232
8.8856752e-05
7.6308436e-05
6.6415022e-05
5.8879562e-05
5.3380955e-05
4.9585819e-05
4.7160884e-05
4.5784369e-05
4.5155826e-05
4.5004184e-05
4.5093764e-05
4.5228072e-05
4.5251376e-05
4.5048234e-05
4.4541268e-05
4.3687553e-05
4.2474013e-05
4.0912205e-05
3.9032896e-05
3.6880734e-05
3.450927e-05
3.1976544e-05
2.9341324e-05
2.6660104e-05
2.3984819e-05
2.1361291e-05
1.8828301e-05
1.6417219e-05
1.4152085e-05
1.2050037e-05
1.0121982e-05
8.3734334e-06
6.8054214e-06
5.4154599e-06
4.198408e-06
3.1477191e-06
2.2552006e-06
1.516418e-06
9.1712179e-07
4.8207419e-07
1.4482135e-07
7.8489646e-08
0.00036238144
0.00032283537
0.00028606089
0.00025188238
0.00022045516
0.00019183462
0.00016609323
0.00014324777
0.00012325076
0.00010600379
9.1365925e-05
7.9157526e-05
6.9165408e-05
6.11507e-05
5.4858069e-05
5.0024975e-05
4.6390564e-05
4.3703875e-05
4.1731028e-05
4.0261038e-05
3.911003e-05
3.8123801e-05
3.7178757e-05
3.6181389e-05
3.506649e-05
3.3794395e-05
3.2347528e-05
3.0726545e-05
2.8946353e-05
2.7032229e-05
2.5016214e-05
2.2933936e-05
2.0821928e-05
1.8715489e-05
1.6647093e-05
1.4645296e-05
1.2734113e-05
1.0932772e-05
9.2557883e-06
7.7132782e-06
6.311435e-06
5.0531491e-06
3.9386158e-06
2.9663551e-06
2.1329831e-06
1.4379224e-06
8.7164088e-07
4.5793901e-07
1.4036637e-07
7.2188938e-08
0.00041660644
0.0003775293
0.00034051233
0.00030543661
0.00027248372
0.00024175531
0.00021337647
0.00018743158
0.00016395422
0.00014293612
0.0001243317
0.00010805855
9.3999078e-05
8.2004743e-05
7.1901901e-05
6.3498282e-05
5.6589815e-05
5.0967562e-05
4.6424487e-05
4.2761642e-05
3.9793498e-05
3.7352186e-05
3.5290542e-05
3.3483919e-05
3.18308e-05
3.0252343e-05
2.869101e-05
2.7108492e-05
2.5483148e-05
2.3807163e-05
2.2083632e-05
2.0323724e-05
1.8544061e-05
1.676442e-05
1.5005791e-05
1.3288842e-05
1.1632767e-05
1.0054503e-05
8.5682726e-06
7.1854058e-06
5.9143802e-06
4.7610643e-06
3.729029e-06
2.8202793e-06
2.0349778e-06
1.3754239e-06
8.3590142e-07
4.3908912e-07
1.3711754e-07
6.6361145e-08
0.00046733533
0.00042935173
0.00039283714
0.00035771331
0.00032416273
0.0002923083
0.00026230015
0.00023426065
0.00020827437
0.00018439411
0.00016264298
0.00014301288
0.00012546372
0.00010992486
9.6298085e-05
8.4461326e-05
7.4273137e-05
6.5577678e-05
5.8210101e-05
5.2001976e-05
4.6786488e-05
4.2403143e-05
3.8701798e-05
3.5545853e-05
3.2814536e-05
3.0404252e-05
2.8229042e-05
2.6220238e-05
2.4325453e-05
2.2507049e-05
2.0740249e-05
1.9011052e-05
1.7314086e-05
1.5650536e-05
1.4026216e-05
1.2449887e-05
1.0931833e-05
9.4827273e-06
8.1127796e-06
6.8311562e-06
5.6456315e-06
4.5624709e-06
3.5864341e-06
2.7211953e-06
1.9689604e-06
1.3337493e-06
8.1255301e-07
4.2679067e-07
1.355484e-07
6.1224754e-08
0.00051397449
0.00047748427
0.00044198197
0.00040741963
0.00037396575
0.00034174832
0.00031092382
0.00028163136
0.00025398349
0.00022807039
0.00020396056
0.0001816983
0.00016130156
0.00014276151
0.00012604334
0.00011108784
9.7813614e-05
8.6120109e-05
7.5891232e-05
6.6999399e-05
5.9309815e-05
5.2684717e-05
4.6987446e-05
4.2086098e-05
3.7856659e-05
3.4185479e-05
3.0971052e-05
2.8125081e-05
2.5572864e-05
2.3253083e-05
2.1117076e-05
1.9127732e-05
1.7258103e-05
1.5489874e-05
1.3811781e-05
1.2218075e-05
1.0707099e-05
9.2800347e-06
7.9398427e-06
6.6904143e-06
5.535935e-06
4.4804676e-06
3.527676e-06
2.6809453e-06
1.9428579e-06
1.3178497e-06
8.0438581e-07
4.223694e-07
1.3627334e-07
5.6909539e-08
0.00055619477
0.00052142192
0.0004872522
0.00045366143
0.00042079645
0.00038878075
0.00035776542
0.00032789208
0.00029928488
0.00027205348
0.00024629311
0.00022208174
0.00019947733
0.00017851639
0.00015921337
0.00014156064
0.00012552908
0.00011106929
9.8113618e-05
8.6578599e-05
7.6367988e-05
6.7376001e-05
5.9490766e-05
5.259771e-05
4.658281e-05
4.13355e-05
3.6751167e-05
3.2733132e-05
2.9194094e-05
2.6057014e-05
2.3255483e-05
2.073362e-05
1.8445582e-05
1.6354771e-05
1.4432825e-05
1.2658496e-05
1.1016474e-05
9.4962515e-06
8.0910589e-06
6.7969284e-06
5.6119029e-06
4.535421e-06
3.5678297e-06
2.7102507e-06
1.9639167e-06
1.3322871e-06
8.1401464e-07
4.2706845e-07
1.3988767e-07
5.3474748e-08
0.00059385295
0.00056088557
0.00052821821
0.00049584658
0.00046389285
0.00043247093
0.00040172002
0.00037177546
0.00034276214
0.00031479667
0.00028798713
0.00026243041
0.00023820945
0.00021539129
0.00019402576
0.00017414446
0.00015576021
0.00013886703
0.00012344068
0.00010943983
9.6807697e-05
8.547416e-05
7.5358213e-05
6.6370655e-05
5.8416903e-05
5.1399765e-05
4.5222082e-05
3.9789105e-05
3.5010544e-05
3.0802205e-05
2.7087207e-05
2.3796757e-05
2.087052e-05
1.8256617e-05
1.591132e-05
1.3798499e-05
1.1888901e-05
1.0159324e-05
8.5917623e-06
7.1725523e-06
5.8915909e-06
4.7416522e-06
3.7177863e-06
2.8170139e-06
2.0375547e-06
1.380506e-06
8.4343616e-07
4.4183431e-07
1.4684254e-07
5.0927934e-08
0.0006269245
0.00059574634
0.00056463285
0.00053359732
0.00050273714
0.00047215459
0.00044197408
0.00041231993
0.00038331125
0.00035506345
0.00032768792
0.00030128977
0.00027596529
0.0002518
0.00022886699
0.00020722548
0.00018691955
0.00016797733
0.00015041054
0.0001342146
0.00011936912
0.00010583889
9.3575343e-05
8.2518269e-05
7.2597936e-05
6.3737328e-05
5.5854499e-05
4.8864885e-05
4.268353e-05
3.7227074e-05
3.2415496e-05
2.8173518e-05
2.4431675e-05
2.1127031e-05
1.8203569e-05
1.5612278e-05
1.3310996e-05
1.126405e-05
9.4417476e-06
7.8197951e-06
6.3786652e-06
5.1029897e-06
3.9809642e-06
3.0039687e-06
2.1657566e-06
1.4637991e-06
8.9340997e-07
4.6700737e-07
1.5732619e-07
4.9237769e-08
0.0006554588
0.00062597397
0.00059637352
0.00056668726
0.00053698922
0.00050736993
0.00047793841
0.00044880613
0.00042008308
0.00039187879
0.00036430197
0.00033745879
0.00031145064
0.00028637245
0.00026231096
0.00023934313
0.00021753464
0.00019693856
0.00017759436
0.0001595272
0.00014274761
0.0001272516
0.00011302112
0.00010002495
8.8219905e-05
7.7552453e-05
6.7960438e-05
5.9375056e-05
5.1722877e-05
4.4927852e-05
3.8913234e-05
3.3603322e-05
2.8924998e-05
2.4808989e-05
2.1190852e-05
1.8011666e-05
1.5218458e-05
1.2764367e-05
1.0608605e-05
8.7162439e-06
7.0578793e-06
5.6092196e-06
4.3506154e-06
3.2667212e-06
2.3457129e-06
1.5804252e-06
9.6293895e-07
5.020714e-07
1.711972e-07
4.8343353e-08
0.00067951229
0.00065156221
0.00062336052
0.00059495305
0.0005663927
0.00053775926
0.0005091474
0.00048065577
0.0004523841
0.00042443389
0.000396908
0.00036990936
0.00034353919
0.00031789557
0.00029307187
0.00026915521
0.00024622488
0.00022435094
0.00020359277
0.00018399804
0.00016560179