/*--------------------------------*- C++ -*----------------------------------*\
  =========                 |
  \\      /  F ield         | OpenFOAM: The Open Source CFD Toolbox
   \\    /   O peration     | Website:  https://openfoam.org
    \\  /    A nd           | Version:  6
     \\/     M anipulation  |
\*---------------------------------------------------------------------------*/
FoamFile
{
    version     2.0;
    format      ascii;
    class       volVectorField;
    location    "229";
    object      U_0;
}
// * * * * * * * * * * * * * * * * * * * * * * * * * * * * * * * * * * * * * //

dimensions      [0 1 -1 0 0 0 0];

internalField   nonuniform List<vector> 
9200
(
(0.0010393462 0.0014199822 -5.9201837e-20)
(0.013676067 -0.0020583667 4.6042532e-20)
(0.038313166 -0.0058665679 -3.8501732e-20)
(0.072274437 -0.0097635048 -6.0257747e-20)
(0.11376474 -0.013490028 1.8826961e-20)
(0.16158089 -0.016605657 3.2743876e-20)
(0.21467148 -0.018817284 -1.2268006e-20)
(0.27206607 -0.019973889 9.2688595e-21)
(0.33285622 -0.020011221 1.6803426e-20)
(0.39616347 -0.018929049 1.4848071e-21)
(0.46111555 -0.016779813 -2.1456334e-20)
(0.52683686 -0.013657727 2.0669999e-20)
(0.59245068 -0.0096879928 -4.0422133e-20)
(0.6570913 -0.0050157695 -2.1133895e-20)
(0.71992471 0.00020557004 5.9046508e-21)
(0.78017501 0.0058241054 -2.5131667e-20)
(0.83717059 0.011712824 2.5217108e-20)
(0.89046875 0.017918526 2.2243197e-20)
(0.9396707 0.024573427 -2.9929726e-22)
(0.98205185 0.028293397 -1.6691899e-21)
(0.0052521803 -0.001346273 -1.7059352e-20)
(0.026962501 -0.008989026 3.974771e-20)
(0.061670115 -0.014809763 2.3576292e-20)
(0.10629489 -0.019172267 -1.1569757e-19)
(0.15873565 -0.022213994 -1.2727087e-20)
(0.21753351 -0.023720682 7.3297077e-20)
(0.28137295 -0.023595091 -3.5476397e-20)
(0.34900601 -0.021868959 -8.3905565e-21)
(0.4192392 -0.018645517 3.4287538e-20)
(0.49090943 -0.014080833 -4.3259575e-20)
(0.56287231 -0.0083759421 -3.0338478e-20)
(0.63400846 -0.0017665845 7.1921424e-20)
(0.70324329 0.0054884055 3.829404e-20)
(0.7695758 0.013118644 -6.797654e-20)
(0.83211244 0.020852095 1.4623688e-20)
(0.89010036 0.028419718 -3.6733392e-20)
(0.94296915 0.035569687 -1.3777194e-20)
(0.99043229 0.042140899 7.0974767e-20)
(1.032356 0.047715323 2.9641949e-20)
(1.0669348 0.049139703 -8.3478282e-20)
(0.010858426 -0.0040424157 3.6773454e-20)
(0.043953413 -0.015431076 2.504735e-21)
(0.090515434 -0.022552281 2.2341708e-20)
(0.14711139 -0.026497356 9.8116822e-22)
(0.21134254 -0.027886295 -4.0773932e-20)
(0.28146767 -0.026795111 1.8576404e-20)
(0.3558704 -0.023382724 1.3420298e-20)
(0.43299006 -0.017921532 -5.03277e-20)
(0.51132476 -0.010735646 5.7261855e-20)
(0.58942612 -0.0021838751 1.4256688e-20)
(0.66590915 0.007347911 -5.4300706e-20)
(0.73948035 0.017460269 -1.8237401e-20)
(0.80897597 0.027756568 9.0591574e-21)
(0.87340263 0.037859277 2.3444732e-20)
(0.93197361 0.047424048 -1.1362502e-20)
(0.98413366 0.056148977 2.787772e-20)
(1.029574 0.063789177 -2.0188241e-20)
(1.0682645 0.070204395 -7.0123553e-20)
(1.1003321 0.075119381 -2.3796243e-20)
(1.1249112 0.076641241 4.8659693e-20)
(0.017957214 -0.0064221632 2.4508013e-20)
(0.064776994 -0.020694799 5.1039222e-20)
(0.12485228 -0.028060846 1.9881694e-20)
(0.19446965 -0.030464064 1.2990097e-20)
(0.27094931 -0.029094839 1.7275704e-20)
(0.35224879 -0.024388976 -4.7720171e-20)
(0.43643138 -0.016825969 -2.5646856e-20)
(0.52162007 -0.0069766671 0)
(0.60602894 0.0045670354 1.3920618e-20)
(0.68798706 0.017211735 -5.8523401e-21)
(0.76597517 0.030373925 -9.7934937e-20)
(0.83867446 0.043499635 -1.5774815e-20)
(0.90501525 0.056086619 6.510319e-20)
(0.96421569 0.067704138 4.84425e-22)
(1.0158035 0.078007718 -1.5725561e-21)
(1.0596155 0.086746795 2.1957487e-20)
(1.0957773 0.093772231 -5.2647198e-21)
(1.12468 0.099065337 -6.1029702e-20)
(1.1468647 0.10259708 -4.5851158e-20)
(1.1622957 0.10341386 6.9520385e-20)
(0.02657942 -0.0082056879 -3.9194198e-21)
(0.089344019 -0.024033505 -5.1256301e-21)
(0.16430754 -0.030264987 5.6599408e-20)
(0.24758119 -0.029810017 1.8539325e-20)
(0.3362416 -0.024513025 -3.1955067e-20)
(0.42795125 -0.015239857 1.2163839e-20)
(0.52047261 -0.00285136 2.6402862e-21)
(0.61166357 0.011737098 3.3609169e-20)
(0.69954711 0.027640145 5.6599502e-21)
(0.78236836 0.044028772 -1.3204739e-20)
(0.85865405 0.060147727 6.0154034e-20)
(0.9272691 0.075340474 -5.8009351e-20)
(0.98745675 0.089072864 -1.3216612e-19)
(1.0388531 0.10094902 -5.5773027e-21)
(1.0814725 0.11071709 8.3150755e-20)
(1.1156655 0.11826405 0)
(1.1420548 0.12360583 1.0118951e-20)
(1.1614668 0.12689056 -1.5459769e-20)
(1.1748179 0.12829871 -8.5994559e-21)
(1.1826673 0.12744916 2.0992229e-20)
(0.036666909 -0.0090895795 -5.4309119e-21)
(0.11731511 -0.024685356 4.3578745e-21)
(0.20811868 -0.028140177 -8.7629838e-21)
(0.30515702 -0.023414953 2.8472394e-20)
(0.40533539 -0.013075589 -2.9392664e-20)
(0.50607147 0.0015226176 -1.6927023e-20)
(0.60490489 0.019095143 3.736423e-20)
(0.69954959 0.038365257 4.7595449e-21)
(0.78800391 0.058167648 -2.4436057e-20)
(0.86863405 0.077483007 6.9867555e-20)
(0.94023972 0.095458645 5.2393806e-22)
(1.0020956 0.11143157 -8.0444311e-20)
(1.0539569 0.12494291 0)
(1.0960273 0.1357375 3.9542115e-20)
(1.1288922 0.14374843 5.5236008e-21)
(1.1534278 0.14906894 -7.7566394e-20)
(1.170699 0.15191914 -1.9586917e-20)
(1.1818623 0.15262369 -1.2467634e-20)
(1.1880592 0.15152606 -1.4709398e-20)
(1.190146 0.14858493 4.0420556e-20)
(0.048058868 -0.008767405 -1.7277958e-20)
(0.1480831 -0.021931993 -2.2198283e-21)
(0.2551407 -0.020797833 3.0380503e-20)
(0.36546384 -0.010412792 3.7484307e-20)
(0.4759042 0.00590159 -1.9944733e-20)
(0.58374266 0.026269309 -6.916303e-20)
(0.68644185 0.048977211 -2.7995796e-20)
(0.78176203 0.072417791 7.8929208e-20)
(0.86790195 0.09521248 8.5778134e-21)
(0.94358915 0.11624961 -2.4873481e-20)
(1.0081258 0.13469827 1.3642211e-20)
(1.061387 0.15001556 -4.3194492e-21)
(1.1037693 0.16193659 0)
(1.1360975 0.17044428 2.7203481e-20)
(1.1595046 0.17572309 -7.9322411e-20)
(1.175302 0.1781037 -3.1475526e-20)
(1.184857 0.17800813 8.105457e-20)
(1.1894921 0.17590946 -4.2969814e-21)
(1.1904029 0.17225559 3.5561073e-21)
(1.188508 0.16719299 2.7111599e-20)
(0.06048525 -0.0069573638 -3.2414615e-20)
(0.18077772 -0.01517038 -8.1624319e-20)
(0.30388929 -0.0075835261 2.5797751e-21)
(0.42642556 0.0097033574 7.016181e-20)
(0.54535149 0.032631555 6.2424375e-20)
(0.657981 0.058820044 -7.157452e-20)
(0.76190882 0.086176509 -2.8275149e-22)
(0.85518291 0.11285231 8.5522545e-20)
(0.93645346 0.13737838 4.8828068e-20)
(1.0050415 0.1586937 -5.4218405e-20)
(1.0609356 0.17613563 -9.2334212e-20)
(1.1047242 0.18941354 -3.1589825e-21)
(1.1374759 0.19855944 4.2127865e-20)
(1.1605873 0.20385857 -6.6056276e-21)
(1.1756247 0.2057702 -1.2868786e-20)
(1.1841776 0.2048492 1.9690807e-20)
(1.1877427 0.20167898 4.3880615e-20)
(1.1876453 0.19682588 -4.385943e-20)
(1.1849954 0.19077885 -1.0232202e-19)
(1.180625 0.18377381 2.4566891e-20)
(0.073537215 -0.0034329734 -3.497975e-20)
(0.21422687 -0.0039890254 -1.7388612e-19)
(0.35251657 0.011839376 8.210324e-20)
(0.48562797 0.037018337 9.2767514e-20)
(0.61085379 0.066835552 5.7970567e-20)
(0.72576726 0.098481178 8.6107093e-21)
(0.82834802 0.12959696 -1.0624009e-19)
(0.91718997 0.15824269 0)
(0.99162743 0.18302814 -6.8748586e-20)
(1.0517521 0.20311206 -1.5202409e-20)
(1.0983384 0.21814861 5.4703464e-20)
(1.1327008 0.22821083 1.0973379e-20)
(1.1565109 0.2336926 -4.5613852e-20)
(1.1716067 0.23519947 -4.9081359e-20)
(1.1798204 0.23344336 2.4287679e-20)
(1.182845 0.22915324 4.4822889e-20)
(1.1821488 0.22300986 -5.5600404e-20)
(1.178936 0.21560823 -1.0751121e-19)
(1.1741468 0.20742225 -3.1513616e-21)
(1.1684567 0.19871881 2.7046397e-20)
(0.086650446 0.001961386 -3.544899e-21)
(0.24696019 0.011816634 8.791324e-20)
(0.39884739 0.03749231 -1.6479247e-20)
(0.54040465 0.071218382 -8.4309147e-20)
(0.66949902 0.10778893 4.516437e-20)
(0.78421952 0.14411543 4.9175454e-20)
(0.88318939 0.17775668 5.535678e-21)
(0.96577869 0.2068849 -9.9502488e-20)
(1.0321763 0.23038802 -2.5048779e-21)
(1.0833328 0.24781553 5.0503541e-20)
(1.120807 0.25926301 5.9854753e-21)
(1.1465558 0.2652362 -1.9717207e-20)
(1.1627107 0.26650533 -7.5704625e-20)
(1.1713765 0.26396622 -6.2554015e-21)
(1.1744762 0.2585243 4.3533351e-20)
(1.1736548 0.25101089 3.702201e-20)
(1.1702383 0.24213396 1.9793439e-20)
(1.1652402 0.23245876 -5.2994836e-20)
(1.1594014 0.22240419 1.295745e-20)
(1.1532251 0.212238 8.2659086e-20)
(-0.0012932615 0.0014346597 -1.1234452e-21)
(-0.0047459602 0.0031874147 2.0646968e-21)
(-0.010771359 0.004135904 8.7949858e-22)
(-0.017754287 0.0045395358 -2.4411023e-21)
(-0.024740317 0.0045654164 -1.4114818e-21)
(-0.031299592 0.0043260384 1.5460011e-21)
(-0.037161326 0.003903538 -6.8700792e-21)
(-0.042147441 0.0033577216 -5.9573036e-21)
(-0.046157774 0.0027313811 1.1171996e-20)
(-0.049146188 0.0020548305 -9.7427474e-21)
(-0.051100652 0.0013493004 -1.9833047e-22)
(-0.052030442 0.00062942191 3.6673434e-21)
(-0.051957736 -9.488946e-05 -6.3295587e-22)
(-0.05091188 -0.00081693034 2.2818741e-20)
(-0.048925777 -0.0015318446 3.0401111e-22)
(-0.046035341 -0.0022351739 -4.0882868e-20)
(-0.042281798 -0.0029222678 7.538561e-21)
(-0.037703443 -0.0035910383 2.3864109e-20)
(-0.032308696 -0.0042399862 -4.3852372e-20)
(-0.026156967 -0.0048211128 -2.7739203e-20)
(-0.0016521999 0.0041808661 -5.3716022e-21)
(-0.0053974809 0.0092681378 1.0865439e-20)
(-0.011218509 0.012007443 -1.0191542e-20)
(-0.017658025 0.013153764 3.9229728e-21)
(-0.023856432 0.013195413 4.8121424e-21)
(-0.029433316 0.012462724 7.1324167e-22)
(-0.034152319 0.011197013 -2.2509485e-20)
(-0.037860376 0.0095738966 -2.0370237e-21)
(-0.040474297 0.007718987 2.0163537e-20)
(-0.04195892 0.0057212303 -5.0473593e-21)
(-0.042308949 0.0036428645 -2.1762586e-20)
(-0.041537336 0.0015267129 4.8973163e-21)
(-0.039667712 -0.00059830514 2.2635419e-20)
(-0.036729081 -0.0027127605 1.0308389e-20)
(-0.032752035 -0.0048026885 2.1854282e-20)
(-0.027769172 -0.0068555076 -1.9770726e-20)
(-0.021824798 -0.0088582186 -2.1672942e-20)
(-0.014966275 -0.010804224 2.1184615e-20)
(-0.0071290238 -0.012679 2.6810363e-20)
(0.0018742871 -0.014317222 1.5854764e-20)
(-0.0023034291 0.0065602324 -4.3568685e-21)
(-0.0065392236 0.014480195 -5.6387546e-21)
(-0.011892131 0.018710542 3.072395e-22)
(-0.017211098 0.020428179 1.0959884e-21)
(-0.021819141 0.020400323 6.6918394e-21)
(-0.02543104 0.019151665 1.0665167e-20)
(-0.027877231 0.017066287 -3.7227631e-21)
(-0.029053268 0.014423782 -1.8896162e-20)
(-0.028909036 0.011424352 6.5413162e-21)
(-0.02743105 0.0082099049 1.2862568e-20)
(-0.024627714 0.0048797761 5.8340841e-21)
(-0.02052011 0.0015022389 1.8159103e-20)
(-0.015135988 -0.0018768628 1.7295912e-21)
(-0.0085054022 -0.005227247 -3.3864524e-20)
(-0.00065689777 -0.008527609 1.2020169e-21)
(0.0083810104 -0.011759108 -2.2139208e-20)
(0.018556858 -0.014904095 -2.44663e-20)
(0.029802169 -0.01795375 4.5819705e-20)
(0.04230495 -0.020855114 2.5349344e-20)
(0.056738554 -0.023247763 1.2239283e-22)
(-0.0031290275 0.0083689697 -5.2833066e-21)
(-0.0078963986 0.018336512 -8.4815254e-21)
(-0.012438985 0.023587808 4.3593044e-21)
(-0.016026534 0.025609657 4.1463446e-21)
(-0.018235023 0.025382744 2.0105705e-21)
(-0.018912651 0.023589321 7.3209945e-21)
(-0.017984717 0.020730272 9.3124765e-21)
(-0.01541671 0.017170377 -1.3511353e-21)
(-0.011207049 0.013171314 -1.1481945e-20)
(-0.0053752363 0.0089189316 -2.9071873e-20)
(0.002048107 0.0045434375 6.1892187e-23)
(0.011026502 0.00013431161 4.0697816e-20)
(0.021522216 -0.00424895 -1.838317e-20)
(0.033497839 -0.0085675836 -1.2296086e-20)
(0.046920497 -0.012795544 5.5348968e-22)
(0.061760077 -0.016911853 3.2302639e-20)
(0.077952992 -0.020901667 -1.4829541e-20)
(0.095392239 -0.024763372 -5.3339177e-20)
(0.11439842 -0.028379714 4.5765002e-20)
(0.13634535 -0.03107309 3.3013162e-20)
(-0.0039704095 0.0094657319 -6.8788995e-22)
(-0.0090916577 0.020487791 -1.2534739e-20)
(-0.012364471 0.026159086 -3.4144531e-20)
(-0.01355254 0.028143337 -5.7241612e-21)
(-0.01253324 0.027555006 -3.6222736e-21)
(-0.009316725 0.025188063 6.3051028e-21)
(-0.0039456462 0.021627411 -4.6461956e-21)
(0.0035261258 0.017298959 -8.8070265e-21)
(0.013036817 0.012508752 2.1899707e-20)
(0.024521237 0.0074744431 5.0567072e-21)
(0.037915532 0.0023489048 -2.529029e-20)
(0.053157437 -0.0027627829 1.1078277e-20)
(0.070186857 -0.007790873 0)
(0.088946569 -0.012691301 1.2089574e-20)
(0.10938542 -0.017436917 -9.7016164e-21)
(0.1314574 -0.022009894 -1.4337117e-20)
(0.15507405 -0.026408643 -1.5738962e-21)
(0.18006758 -0.030659416 -2.2181545e-21)
(0.20685339 -0.034576529 4.6147056e-20)
(0.23766356 -0.037019863 -1.0470123e-20)
(-0.0046450977 0.009780862 -7.5356672e-21)
(-0.0096772506 0.020747879 2.4516397e-20)
(-0.01106438 0.026160976 -1.0499345e-20)
(-0.0090968328 0.027724444 -2.7469278e-20)
(-0.0039797215 0.026601694 -2.7548143e-20)
(0.0040961814 0.023648408 -1.4921567e-20)
(0.014954147 0.019496457 -6.9059642e-22)
(0.028436232 0.014604706 5.5499783e-21)
(0.044403142 0.0093034473 1.9615877e-20)
(0.06273049 0.0038284165 7.3530846e-21)
(0.083304308 -0.0016547537 -7.1862206e-21)
(0.10601896 -0.0070322367 -2.0102314e-21)
(0.13077356 -0.012229095 -3.8191705e-20)
(0.15746942 -0.01719975 -1.2693643e-20)
(0.18601198 -0.021919731 1.8750603e-20)
(0.21631175 -0.026379714 -2.1021671e-20)
(0.24823221 -0.030602219 -8.9730568e-21)
(0.28151865 -0.034670603 3.0440462e-20)
(0.31660701 -0.038364814 5.0472062e-20)
(0.35665013 -0.039964093 3.3559658e-21)
(-0.0049617683 0.0093139985 1.6783302e-20)
(-0.0091662691 0.019097709 1.4467937e-20)
(-0.007859365 0.023563366 5.1145481e-20)
(-0.00185854 0.024328943 2.3387979e-20)
(0.0082957217 0.022523783 1.8251773e-22)
(0.022221938 0.019014385 -3.9388452e-20)
(0.039597439 0.014440936 -2.4313856e-20)
(0.060147899 0.0092663603 1.0465817e-20)
(0.083639109 0.0038232294 1.4401585e-20)
(0.10986668 -0.0016512975 -1.3113711e-20)
(0.13864562 -0.0069910074 -4.4038709e-20)
(0.16980169 -0.012082845 2.9618495e-20)
(0.20316403 -0.016854156 2.002055e-20)
(0.23855944 -0.021263991 -2.7551153e-20)
(0.27581228 -0.025296398 1.1650133e-20)
(0.31474809 -0.028957162 2.419761e-20)
(0.35514543 -0.032303046 8.0723932e-21)
(0.39663385 -0.03550667 -1.176421e-20)
(0.43957699 -0.038392634 -1.4190296e-20)
(0.48798507 -0.038634393 5.872761e-21)
(-0.0047307761 0.0081236731 1.1093844e-20)
(-0.0070586005 0.015671176 -2.3352717e-20)
(-0.0020293663 0.018562032 8.6200533e-21)
(0.0090325191 0.018216225 3.3587963e-20)
(0.025256359 0.01565115 5.2124332e-20)
(0.046066335 0.011695604 2.0276507e-20)
(0.070984519 0.0069609534 -5.8639343e-21)
(0.099601942 0.0018829529 -1.2286283e-20)
(0.13156893 -0.0032271961 -6.2057454e-21)
(0.16657566 -0.0081496548 3.424083e-20)
(0.20433423 -0.012733317 -4.5104368e-21)
(0.24456483 -0.016879183 -1.6643298e-20)
(0.28698468 -0.020528681 -1.969357e-20)
(0.33129996 -0.023656406 -4.744373e-20)
(0.37720456 -0.026265525 2.3238699e-20)
(0.42438768 -0.028387852 -1.4095981e-20)
(0.47249971 -0.030127609 2.5993393e-20)
(0.52103615 -0.031783177 2.104082e-20)
(0.57021392 -0.033350664 -8.5570384e-20)
(0.62470913 -0.032058824 -1.0807116e-22)
(-0.0037710519 0.0063146394 2.1925053e-20)
(-0.0028657666 0.010735096 -2.6165527e-20)
(0.0071421039 0.011564137 -4.501329e-20)
(0.024450231 0.0099249904 -2.7253779e-20)
(0.047870848 0.0066523071 -2.0439867e-21)
(0.076628699 0.0024906187 1.3050096e-20)
(0.11007672 -0.0020153931 -2.8337705e-21)
(0.14765205 -0.0064879012 1.8118535e-20)
(0.18886095 -0.0106635 8.8685613e-21)
(0.23325194 -0.014362417 -1.1380171e-20)
(0.28039148 -0.017468944 8.8779103e-21)
(0.32984602 -0.019916799 -2.3903263e-20)
(0.38116879 -0.021678689 8.0504755e-21)
(0.43389082 -0.022759865 1.6756388e-20)
(0.48751933 -0.023194289 -2.6395131e-21)
(0.54154713 -0.023046878 1.661898e-21)
(0.59543543 -0.02246943 -3.1957686e-22)
(0.64851781 -0.021870088 1.9590417e-20)
(0.70082237 -0.021445044 4.0434002e-21)
(0.75745148 -0.018499061 -5.733476e-22)
(-0.0019110144 0.0040273482 2.369211e-20)
(0.0038694295 0.0046765207 5.7159955e-20)
(0.020315309 0.0031879654 -4.9244219e-20)
(0.045178282 0.00029442768 -9.9454141e-21)
(0.076965148 -0.0034241497 2.0256345e-20)
(0.11469622 -0.0073535831 2.1433717e-21)
(0.15753882 -0.011054953 -2.981516e-20)
(0.2047483 -0.014244135 6.9848106e-21)
(0.25564949 -0.016737923 7.1097858e-21)
(0.30960472 -0.01842695 -2.6254074e-20)
(0.36598646 -0.01926009 1.292732e-21)
(0.42415957 -0.019231858 -3.7174106e-20)
(0.48347099 -0.018372192 -3.6341005e-20)
(0.54324563 -0.016738265 6.5683462e-20)
(0.6027881 -0.014407289 5.562747e-21)
(0.66138882 -0.011475884 -1.5188791e-20)
(0.71830782 -0.0081020295 1.936396e-20)
(0.77269899 -0.0045928487 -9.1888123e-22)
(0.82408833 -0.00096802989 2.0364576e-20)
(0.87621964 0.0043280885 -1.955415e-20)
(-0.018836425 -0.0050997019 5.8352033e-20)
(-0.010224665 -0.005634925 1.5783663e-20)
(-0.00022120844 -0.0060688777 -3.5139547e-20)
(0.010823208 -0.006334107 1.6790229e-20)
(0.022642444 -0.006512044 0)
(0.035177858 -0.0066300867 0)
(0.048369629 -0.0066909698 -2.2974938e-20)
(0.062138039 -0.006702536 -1.6502864e-20)
(0.076412674 -0.0066741702 1.9122585e-20)
(0.091134029 -0.0066126614 1.8174026e-20)
(0.10624713 -0.0065232013 1.052425e-21)
(0.12170017 -0.0064103534 -1.0317632e-20)
(0.13744484 -0.0062780764 8.3268756e-21)
(0.15343594 -0.0061297176 1.8233709e-20)
(0.1696307 -0.0059681402 -5.2274145e-21)
(0.18598847 -0.0057958296 -1.0174931e-20)
(0.2024705 -0.0056149569 -4.3195855e-21)
(0.21903975 -0.0054274313 -4.4257369e-21)
(0.23566081 -0.0052349447 7.3667162e-22)
(0.2522998 -0.0050390076 1.2286034e-21)
(0.26892439 -0.0048409748 2.5666298e-21)
(0.28550379 -0.0046420662 6.6539431e-21)
(0.30200882 -0.004443381 2.4894429e-22)
(0.31841194 -0.0042459087 -3.4514684e-21)
(0.3346873 -0.0040505367 1.5558762e-22)
(0.35081084 -0.0038580567 -5.7709753e-22)
(0.3667603 -0.0036691685 1.2434356e-21)
(0.38251526 -0.0034844847 1.0522431e-21)
(0.39805722 -0.0033045337 -1.2987923e-21)
(0.41336954 -0.0031297636 -1.2218734e-22)
(0.42843751 -0.0029605464 3.5750041e-23)
(0.44324826 -0.0027971821 -3.5187555e-22)
(0.45779079 -0.0026399037 -4.0565368e-22)
(0.47205593 -0.0024888826 5.5412903e-23)
(0.48603625 -0.0023442341 -1.3809016e-22)
(0.49972606 -0.0022060235 -2.2343131e-22)
(0.51312135 -0.002074273 2.5571879e-22)
(0.52621976 -0.0019489684 2.9501912e-22)
(0.53902049 -0.0018300678 -8.2711356e-24)
(0.55152467 -0.0017175058 -1.5517346e-22)
(0.56373425 -0.0016112215 3.0406526e-23)
(0.57565583 -0.0015111144 -4.0144612e-23)
(0.58728957 -0.0014172557 9.2203219e-23)
(0.59866449 -0.001329309 2.1977094e-23)
(0.60973496 -0.0012485578 -1.1394456e-22)
(0.62069299 -0.0011717927 -6.7611894e-24)
(0.63106096 -0.001111244 -7.2399208e-26)
(0.64234946 -0.0010339474 -3.5611014e-24)
(0.6504274 -0.0010508047 2.9453724e-23)
(0.66700825 -0.00087555861 3.6050642e-22)
(0.010445865 -0.015017608 -1.2746814e-20)
(0.018179693 -0.01664101 -6.3302319e-20)
(0.02777921 -0.017915412 -3.0541935e-20)
(0.038385139 -0.018672069 3.8476006e-20)
(0.049620979 -0.019183586 1.4662609e-20)
(0.06150662 -0.01952943 -1.8204924e-20)
(0.07401281 -0.019709863 4.6721998e-21)
(0.087062657 -0.01974649 2.5447184e-20)
(0.10059313 -0.019667279 9.1993406e-23)
(0.11455399 -0.019491698 -7.6591232e-21)
(0.12889715 -0.019234357 -1.3021014e-20)
(0.14357599 -0.018908309 -8.5245284e-21)
(0.15854661 -0.01852497 1.7772331e-20)
(0.17376752 -0.018093998 8.9295427e-21)
(0.18919895 -0.017623676 -1.6522434e-20)
(0.20480272 -0.017121228 -6.039057e-21)
(0.22054209 -0.016592993 3.2145042e-21)
(0.2363817 -0.016044566 8.3716308e-21)
(0.25228747 -0.015480928 6.9832256e-21)
(0.26822667 -0.014906537 -6.9727143e-21)
(0.28416787 -0.014325409 -3.1685452e-21)
(0.30008103 -0.01374117 1.3605334e-21)
(0.31593758 -0.013157094 3.8682767e-22)
(0.33171045 -0.012576136 1.2113949e-21)
(0.3473742 -0.012000954 1.8368346e-22)
(0.36290502 -0.011433919 -3.266161e-22)
(0.37828086 -0.010877136 -7.2434834e-22)
(0.39348142 -0.010332449 9.7156526e-22)
(0.40848822 -0.0098014503 8.24829e-22)
(0.4232846 -0.0092854969 -1.5147322e-22)
(0.43785575 -0.0087857174 5.5306032e-22)
(0.45218865 -0.0083030261 -2.3880904e-22)
(0.46627211 -0.0078381376 -3.7069852e-22)
(0.48009667 -0.0073915822 -6.0999034e-22)
(0.49365463 -0.006963723 4.4171703e-22)
(0.50693993 -0.0065547738 -1.5476847e-23)
(0.5199482 -0.0061648193 1.6124694e-22)
(0.53267668 -0.0057938346 -4.4174696e-22)
(0.54512412 -0.0054417128 3.7189433e-22)
(0.55729119 -0.0051082757 6.7175152e-23)
(0.56917938 -0.0047933584 -1.0285392e-22)
(0.58079477 -0.0044966771 1.7613644e-22)
(0.59213711 -0.0042184608 2.3339571e-22)
(0.60323465 -0.0039577196 1.6926413e-22)
(0.61404195 -0.0037182991 1.6767118e-22)
(0.62474814 -0.0034906438 -2.6097829e-23)
(0.63488199 -0.0033112029 8.404316e-23)
(0.64593115 -0.0030818604 7.629104e-23)
(0.65382956 -0.0031323484 -1.9466398e-22)
(0.67009142 -0.0026124314 -3.8026658e-23)
(0.067614677 -0.024029143 9.4528282e-21)
(0.073589657 -0.026749045 3.2950985e-21)
(0.082265492 -0.028805564 -1.2162197e-20)
(0.091947804 -0.0299685 -1.2257892e-21)
(0.10198319 -0.030767859 1.4970584e-20)
(0.11254632 -0.031330886 -1.4887119e-20)
(0.12367594 -0.031636065 -2.9842263e-20)
(0.13529679 -0.031712999 1.4493518e-20)
(0.14735693 -0.031607629 1.8181962e-20)
(0.15982339 -0.031350049 -1.1598513e-20)
(0.17266056 -0.030961813 1.019055e-21)
(0.18583078 -0.030462746 8.6860137e-21)
(0.1992978 -0.029870544 -1.5253537e-20)
(0.21302653 -0.029200231 2.9095137e-21)
(0.22698239 -0.028464752 7.5194336e-21)
(0.24113137 -0.027675497 3.1598607e-23)
(0.25544011 -0.02684255 2.6556435e-22)
(0.26987602 -0.025974888 -7.4150836e-21)
(0.28440727 -0.025080556 3.861681e-21)
(0.29900294 -0.024166811 8.4749022e-21)
(0.31363309 -0.023240225 -3.8351749e-21)
(0.32826887 -0.022306765 -2.213036e-21)
(0.34288266 -0.021371847 1.0124438e-21)
(0.35744815 -0.020440378 -1.7155318e-21)
(0.37194044 -0.019516785 1.3532251e-21)
(0.38633614 -0.018605038 7.1845898e-22)
(0.40061344 -0.017708666 1.5268378e-21)
(0.41475217 -0.016830775 -1.9526605e-21)
(0.42873385 -0.01597406 2.2235666e-21)
(0.4425417 -0.015140824 5.5188497e-22)
(0.45616066 -0.014332996 4.0322491e-22)
(0.46957741 -0.01355215 3.2134455e-22)
(0.48278032 -0.01279953 8.7324895e-22)
(0.49575943 -0.012076075 -1.3708588e-21)
(0.50850645 -0.011382446 3.7065507e-22)
(0.52101467 -0.010719056 1.0941237e-22)
(0.533279 -0.010086105 -4.517208e-23)
(0.54529591 -0.0094836086 8.6732888e-23)
(0.55706335 -0.0089114469 -3.7184894e-22)
(0.56858112 -0.0083693796 1.8293451e-22)
(0.57984985 -0.0078571878 -3.4987074e-23)
(0.59087466 -0.007374453 3.9004052e-22)
(0.60165448 -0.0069216046 -1.8544362e-22)
(0.61221619 -0.006497054 4.7323329e-23)
(0.62251468 -0.00610719 4.3603348e-23)
(0.63273365 -0.0057363251 -7.359903e-23)
(0.64241404 -0.0054443994 -1.2082382e-22)
(0.65299954 -0.0050704926 3.8808906e-22)
(0.66054956 -0.005154237 1.7270453e-22)
(0.67619316 -0.0043070029 -8.303964e-22)
(0.15021527 -0.031460424 1.5010127e-21)
(0.15354688 -0.035257389 -1.156661e-20)
(0.16061621 -0.038010914 6.6441978e-21)
(0.16880588 -0.039479091 -1.332474e-20)
(0.17698222 -0.040520682 -1.9758304e-21)
(0.18552344 -0.041302273 9.1599379e-21)
(0.19458417 -0.041757229 -9.7662154e-21)
(0.20408689 -0.041913702 1.5662772e-21)
(0.21398765 -0.041833322 1.2903796e-20)
(0.22427596 -0.041554327 3.4031984e-21)
(0.2349325 -0.041102036 -6.2096945e-21)
(0.24593018 -0.04050044 -2.8638087e-21)
(0.25724155 -0.039771739 -5.840905e-21)
(0.26883908 -0.038935046 -6.4553121e-21)
(0.28069419 -0.038006966 3.2356922e-21)
(0.29277759 -0.037002293 8.4621107e-22)
(0.3050597 -0.035934316 1.3679574e-21)
(0.31751094 -0.034815013 -3.3850411e-21)
(0.33010191 -0.03365524 -4.2428843e-21)
(0.34280357 -0.032464886 2.36165e-21)
(0.35558751 -0.031252987 3.2251342e-21)
(0.36842608 -0.030027806 -1.5636186e-21)
(0.38129254 -0.028796892 1.5867261e-21)
(0.39416127 -0.027567123 -3.9123954e-22)
(0.40700785 -0.026344734 -3.9196386e-21)
(0.41980917 -0.025135343 -3.0332805e-21)
(0.43254356 -0.023943967 -1.9026254e-22)
(0.44519082 -0.02277504 4.2858943e-22)
(0.4577323 -0.021632431 -2.2106025e-21)
(0.47015092 -0.020519468 -8.5497071e-22)
(0.4824312 -0.019438956 2.2837646e-22)
(0.49455927 -0.018393211 -1.2498672e-21)
(0.50652286 -0.017384088 6.2632293e-24)
(0.51831125 -0.016413016 -4.2420818e-22)
(0.52991531 -0.015481037 -4.7193585e-22)
(0.54132743 -0.014588849 -5.1995577e-22)
(0.5525415 -0.013736846 -8.4132936e-22)
(0.56355293 -0.012925168 -5.449639e-23)
(0.57435856 -0.012153762 -3.9160403e-24)
(0.58495704 -0.011422406 -5.1972215e-22)
(0.59534778 -0.010730903 -9.1607154e-23)
(0.60553464 -0.010078775 -3.3239267e-22)
(0.61551545 -0.0094667163 -4.3759765e-22)
(0.62531519 -0.008892628 3.7841588e-22)
(0.63488925 -0.008365395 1.4820918e-23)
(0.64441368 -0.0078635716 1.8237494e-22)
(0.65344693 -0.0074693296 -1.3246589e-22)
(0.6633695 -0.0069629403 -2.6690903e-22)
(0.67042156 -0.0070791391 -4.4692874e-23)
(0.68517844 -0.0059326723 4.6229449e-22)
(0.25468562 -0.036552747 -2.0900307e-20)
(0.25447016 -0.041393498 4.7585952e-20)
(0.25907328 -0.044745645 1.0348097e-20)
(0.26508407 -0.04644203 -1.5765315e-20)
(0.27070927 -0.047714301 -2.0227946e-21)
(0.27651988 -0.048747761 2.6232235e-21)
(0.28283543 -0.049413702 -1.66082e-21)
(0.28957683 -0.049728083 -4.6861409e-21)
(0.2966965 -0.049761414 -4.0159158e-21)
(0.30420539 -0.049557035 -1.2207636e-20)
(0.31210209 -0.04914167 1.789775e-20)
(0.32036928 -0.048540785 6.5219886e-21)
(0.3289869 -0.047778947 -1.678052e-20)
(0.33793392 -0.046878001 1.0317572e-20)
(0.34718697 -0.045857282 8.3849904e-21)
(0.35672063 -0.044734295 -8.7923762e-22)
(0.36650833 -0.043525049 -3.1222232e-21)
(0.37652277 -0.04224423 -3.8197298e-21)
(0.38673628 -0.040905341 -1.389257e-21)
(0.39712117 -0.039520834 -1.2304184e-21)
(0.40764995 -0.038102203 -3.0257589e-21)
(0.41829564 -0.036660051 0)
(0.42903198 -0.035204136 -1.3451903e-21)
(0.43983358 -0.033743404 3.9309495e-21)
(0.45067608 -0.032286009 5.4052637e-21)
(0.46153633 -0.030839335 -9.4112534e-22)
(0.47239242 -0.029410009 -2.9274412e-21)
(0.48322382 -0.028003916 3.0258354e-21)
(0.49401141 -0.026626225 2.544752e-22)
(0.50473754 -0.025281407 3.4352418e-21)
(0.51538605 -0.02397327 -5.3459722e-22)
(0.52594227 -0.022704987 1.7173451e-21)
(0.53639304 -0.021479142 -7.9964253e-22)
(0.54672668 -0.020297769 2.909405e-22)
(0.55693298 -0.019162406 -4.3403839e-22)
(0.5670032 -0.018074141 5.623155e-22)
(0.57693003 -0.017033676 4.5709762e-22)
(0.58670761 -0.016041377 3.8255487e-22)
(0.59633146 -0.015097364 -9.5935929e-22)
(0.60579885 -0.014201529 6.8355215e-22)
(0.61510784 -0.013353796 -3.6957238e-22)
(0.62426075 -0.012553724 -1.103314e-21)
(0.63325417 -0.011802344 1.4078104e-21)
(0.64211082 -0.011097162 -6.2005544e-23)
(0.65078687 -0.010449484 -1.5815889e-22)
(0.6594488 -0.009832609 -7.8243985e-24)
(0.6676773 -0.0093492233 -1.2621439e-22)
(0.67677312 -0.008726182 -4.6582069e-22)
(0.68320496 -0.0088736187 8.788291e-22)
(0.69685036 -0.0074648733 -4.4315552e-23)
(0.37635125 -0.038368153 -1.7495096e-20)
(0.37170972 -0.044270215 1.2832049e-20)
(0.37286685 -0.048161597 2.9754564e-21)
(0.3759104 -0.050098835 -7.6353702e-21)
(0.37830521 -0.051669954 1.2055977e-20)
(0.38072288 -0.053042355 7.7914094e-21)
(0.38367595 -0.054030021 -1.2647688e-20)
(0.38710051 -0.054633083 -6.0679758e-21)
(0.39092917 -0.054917984 1.2697338e-20)
(0.39518236 -0.054927113 -1.5304971e-20)
(0.39987417 -0.054687493 -1.4063188e-20)
(0.40499499 -0.05422463 1.4129632e-20)
(0.41052854 -0.053563637 6.8193826e-21)
(0.41645709 -0.052727926 -4.2037654e-21)
(0.42276006 -0.051738993 -1.8545611e-21)
(0.42941394 -0.050616726 -4.0581716e-21)
(0.43639338 -0.049379677 5.3047597e-21)
(0.44367186 -0.048045203 3.6682084e-21)
(0.45122214 -0.046629523 -3.2408293e-21)
(0.45901668 -0.04514779 3.1379483e-21)
(0.46702796 -0.043614134 2.7666793e-21)
(0.47522879 -0.042041701 -3.2111122e-21)
(0.48359256 -0.040442676 3.7056556e-22)
(0.49209343 -0.038828291 -3.2571638e-21)
(0.5007065 -0.037208838 7.2454111e-21)
(0.50940799 -0.035593679 6.1080574e-21)
(0.51817529 -0.033991253 8.0973106e-22)
(0.52698708 -0.032409095 -1.7683224e-21)
(0.53582339 -0.030853855 3.7021746e-21)
(0.54466564 -0.029331329 7.1885146e-21)
(0.55349668 -0.027846488 2.3049297e-21)
(0.56230078 -0.026403528 3.316484e-21)
(0.57106366 -0.02500591 1.9956194e-21)
(0.57977245 -0.023656419 7.4557862e-22)
(0.58841571 -0.022357223 -2.637454e-22)
(0.5969834 -0.021109938 2.7203092e-21)
(0.60546685 -0.019915695 6.1992109e-22)
(0.61385885 -0.018775214 2.9487734e-22)
(0.62215348 -0.017688898 5.6232408e-23)
(0.63034656 -0.016656872 9.896635e-22)
(0.63843466 -0.015679282 4.7020018e-23)
(0.64641855 -0.014755827 4.424732e-22)
(0.6542935 -0.01388796 -1.2621766e-22)
(0.66207975 -0.013072916 -2.7734736e-22)
(0.66973459 -0.012324319 -1.5218576e-22)
(0.67741347 -0.011610803 -4.2207703e-22)
(0.68472327 -0.011053503 1.6139187e-22)
(0.69287146 -0.010332294 -1.272354e-22)
(0.69859429 -0.010509392 -5.0126389e-22)
(0.71095665 -0.0088817213 2.4586869e-22)
(0.50927424 -0.035974261 3.6471419e-21)
(0.49953033 -0.042960641 -1.89583e-20)
(0.49627549 -0.047383437 -2.3083846e-21)
(0.49555584 -0.04973674 5.486945e-21)
(0.49416944 -0.051818003 3.052813e-21)
(0.49269564 -0.053705368 -4.9884886e-23)
(0.49181219 -0.055187604 6.1896663e-21)
(0.4915144 -0.056265352 7.6251009e-21)
(0.49171156 -0.056990485 9.8580391e-21)
(0.49241061 -0.057395524 -1.125004e-20)
(0.49363092 -0.057506249 -2.1579419e-20)
(0.49536765 -0.057348363 -3.9353468e-21)
(0.49760455 -0.056947075 1.593814e-20)
(0.50032289 -0.056326952 1.2808956e-20)
(0.50350152 -0.055511674 -5.9066947e-21)
(0.50711638 -0.054523785 1.3817052e-21)
(0.51114125 -0.053384722 -3.6600825e-21)
(0.5155486 -0.052114874 2.2443736e-21)
(0.52031013 -0.050733581 -2.9123016e-22)
(0.52539719 -0.049259097 -1.865409e-21)
(0.53078109 -0.047708591 7.8265859e-21)
(0.53643348 -0.046098139 -2.9308754e-22)
(0.54232654 -0.044442717 4.181809e-22)
(0.54843322 -0.04275619 -6.5646656e-22)
(0.55472743 -0.041051309 -4.3029365e-21)
(0.56118412 -0.039339712 4.208514e-21)
(0.56777946 -0.037631931 1.9031212e-21)
(0.57449088 -0.035937406 -3.3081903e-21)
(0.58129714 -0.034264509 -4.1116417e-21)