/*--------------------------------*- C++ -*----------------------------------*\
  =========                 |
  \\      /  F ield         | OpenFOAM: The Open Source CFD Toolbox
   \\    /   O peration     | Website:  https://openfoam.org
    \\  /    A nd           | Version:  6
     \\/     M anipulation  |
\*---------------------------------------------------------------------------*/
FoamFile
{
    version     2.0;
    format      ascii;
    class       volVectorField;
    location    "229";
    object      UMean;
}
// * * * * * * * * * * * * * * * * * * * * * * * * * * * * * * * * * * * * * //

dimensions      [0 1 -1 0 0 0 0];

internalField   nonuniform List<vector> 
9200
(
(0.0016415677 0.00095927098 -6.0791022e-20)
(0.015678172 -0.0035101022 4.8138945e-20)
(0.041842169 -0.0081670976 -3.9759095e-20)
(0.077420872 -0.012798256 -6.2916426e-20)
(0.12053659 -0.017180967 1.9545612e-20)
(0.16993619 -0.020880713 3.4197382e-20)
(0.22452519 -0.023610347 -1.2791871e-20)
(0.28329254 -0.025227311 9.6760301e-21)
(0.34529318 -0.025675739 1.7793732e-20)
(0.40961658 -0.02496319 1.5726888e-21)
(0.47536347 -0.023149353 -2.2777681e-20)
(0.54163737 -0.020335041 2.1893638e-20)
(0.60754793 -0.01665123 -4.2734608e-20)
(0.67222406 -0.012247931 -2.2449867e-20)
(0.73483511 -0.0072823862 6.2732978e-21)
(0.79461747 -0.0019093806 -2.6760966e-20)
(0.85091959 0.0037417744 2.6888307e-20)
(0.90332402 0.0097136021 2.3845852e-20)
(0.95146558 0.01613516 -2.6372142e-22)
(0.99269479 0.019680009 -1.5997382e-21)
(0.0060306925 -0.0018647818 -1.751366e-20)
(0.029434756 -0.010557858 4.1381093e-20)
(0.065907633 -0.017240838 2.4144223e-20)
(0.11232813 -0.022323635 -1.2017507e-19)
(0.16651337 -0.025989873 -1.3159852e-20)
(0.22695124 -0.028038473 7.6530336e-20)
(0.29227985 -0.028384342 -3.7036722e-20)
(0.36120899 -0.027072662 -8.8194187e-21)
(0.43250913 -0.024218965 3.6083452e-20)
(0.50498853 -0.019990056 -4.5617138e-20)
(0.57748272 -0.01459618 -3.2157091e-20)
(0.64886207 -0.0082805863 7.6336681e-20)
(0.71805242 -0.0013076946 4.0561572e-20)
(0.78406424 0.0060485894 -7.2114666e-20)
(0.84602595 0.013514839 1.5513807e-20)
(0.90321588 0.020822771 -3.8974092e-20)
(0.95510165 0.027723093 -1.4753814e-20)
(1.0014375 0.034058091 7.5237227e-20)
(1.0421332 0.03942144 3.2128868e-20)
(1.0754521 0.040716692 -8.5072329e-20)
(0.011826958 -0.0045962275 3.7440121e-20)
(0.046917491 -0.017052873 2.340727e-21)
(0.095473228 -0.025016599 2.2672979e-20)
(0.15401841 -0.029642481 1.0152487e-21)
(0.22007534 -0.031605556 -4.1816025e-20)
(0.29184833 -0.031002467 1.9494668e-20)
(0.36767431 -0.028010567 1.3774728e-20)
(0.44595277 -0.022920476 -5.2589537e-20)
(0.52515148 -0.01607194 6.008338e-20)
(0.60380308 -0.0078364366 1.5243039e-20)
(0.68051611 0.0013904646 -5.7437195e-20)
(0.75400396 0.011202744 -1.9399799e-20)
(0.82312293 0.02120041 9.307717e-21)
(0.88691169 0.031005672 2.4781285e-20)
(0.94462536 0.040276727 -1.1983338e-20)
(0.99575731 0.04871654 2.9399171e-20)
(1.0400506 0.056086662 -2.1369375e-20)
(1.0775262 0.062254117 -7.3574405e-20)
(1.1083595 0.066955346 -2.4317025e-20)
(1.1317401 0.068327704 5.0515066e-20)
(0.019124506 -0.00698571 2.4833273e-20)
(0.06823893 -0.022299336 5.226256e-20)
(0.13051704 -0.030455448 2.0459204e-20)
(0.20220429 -0.033477627 1.3663458e-20)
(0.2805471 -0.032619017 1.8081129e-20)
(0.36345051 -0.028343162 -4.9645409e-20)
(0.44893524 -0.021153641 -2.6793304e-20)
(0.53509238 -0.01164317 0)
(0.62011789 -0.00042099438 1.5334265e-20)
(0.70233814 0.011906978 -6.6072656e-21)
(0.78024718 0.024749472 -1.0293117e-19)
(0.85255479 0.03754937 -1.6428131e-20)
(0.91823311 0.049805552 6.8611498e-20)
(0.97655207 0.061091981 4.7764328e-22)
(1.027097 0.071071528 -1.6504488e-21)
(1.0697638 0.079502477 2.2996394e-20)
(1.1047341 0.086244864 -5.384337e-21)
(1.1324492 0.091288669 -6.3849519e-20)
(1.1534916 0.09461293 -4.7950359e-20)
(1.1678616 0.095271267 7.1327297e-20)
(0.027947605 -0.0087509731 -3.8467742e-21)
(0.093290907 -0.025547087 -4.8388333e-21)
(0.1706369 -0.032485655 5.7925465e-20)
(0.25606077 -0.032569994 1.9324769e-20)
(0.34657384 -0.027713255 -3.3392807e-20)
(0.43979262 -0.018815037 1.2390672e-20)
(0.53344694 -0.0067642933 2.7552519e-21)
(0.62537725 0.0075003116 3.5384547e-20)
(0.71360716 0.023077037 5.9379321e-21)
(0.79640112 0.039127477 -1.4085436e-20)
(0.87232262 0.054893425 6.3535064e-20)
(0.94028785 0.069721067 -6.0661924e-20)
(0.99960141 0.083083504 -1.3844961e-19)
(1.0499655 0.094595138 -5.8337205e-21)
(1.09146 0.10401577 8.6731317e-20)
(1.1244955 0.11124379 0)
(1.1497453 0.11630498 1.0655521e-20)
(1.1680756 0.1193552 -1.5982256e-20)
(1.1804303 0.12057871 -9.0610081e-21)
(1.1873843 0.11958717 2.1535926e-20)
(0.038230544 -0.0095873643 -5.160291e-21)
(0.12171401 -0.026034575 4.4399774e-21)
(0.21504151 -0.030087413 -8.9635717e-21)
(0.31426537 -0.025810189 2.8984237e-20)
(0.41623827 -0.01584093 -3.053877e-20)
(0.51834416 -0.0015725251 -1.7575345e-20)
(0.61810634 0.015681167 3.8105816e-20)
(0.71324211 0.034621994 4.767269e-21)
(0.80177443 0.054072728 -2.5995184e-20)
(0.8821138 0.073011019 7.299474e-20)
(0.95312033 0.090588609 3.0422171e-22)
(1.0141394 0.10615262 -8.4116657e-20)
(1.065001 0.11925784 0)
(1.105981 0.129664 4.1077689e-20)
(1.1377288 0.13731823 5.6900947e-21)
(1.1611732 0.14232526 -8.0267824e-20)
(1.1774173 0.14491322 -2.0288395e-20)
(1.1876424 0.14541126 -1.2828143e-20)
(1.1930022 0.14416197 -1.519311e-20)
(1.1943535 0.14110908 4.1640327e-20)
(0.049804611 -0.0091887638 -1.730444e-20)
(0.15288169 -0.023047903 -3.0367713e-21)
(0.26256006 -0.022382768 3.0651554e-20)
(0.37505778 -0.012349676 3.764281e-20)
(0.4871916 0.0036579053 -2.0444099e-20)
(0.59622694 0.023725918 -7.1733577e-20)
(0.69963247 0.046114527 -2.9352608e-20)
(0.79519748 0.06920068 8.2051653e-20)
(0.88117181 0.091601967 9.2069092e-21)
(0.95635197 0.11221277 -2.5755319e-20)
(1.0201204 0.13021546 1.4025385e-20)
(1.0724358 0.14508466 -4.5207391e-21)
(1.1137745 0.15657422 0)
(1.1450309 0.16468425 2.8191059e-20)
(1.1673931 0.1696129 -8.2022388e-20)
(1.1822115 0.1716998 -3.2529859e-20)
(1.1908765 0.17137103 8.3529501e-20)
(1.194721 0.16909966 -4.652361e-21)
(1.1949402 0.16532832 3.5968031e-21)
(1.1924432 0.16018577 2.8033257e-20)
(0.062392102 -0.0072754027 -3.2547213e-20)
(0.1859063 -0.015992652 -8.3210659e-20)
(0.31168732 -0.0087331648 1.8167467e-21)
(0.43634336 0.0082958644 7.2218576e-20)
(0.55682707 0.030968618 6.4256698e-20)
(0.67046079 0.056869976 -7.3272353e-20)
(0.77487214 0.083888103 1.4976783e-22)
(0.86816601 0.11016874 8.902638e-20)
(0.94906957 0.13425003 5.0615018e-20)
(1.0169935 0.15508765 -5.6328343e-20)
(1.0720199 0.17204099 -9.5709845e-20)
(1.1148259 0.18484281 -3.2698858e-21)
(1.1465564 0.19354637 4.3546037e-20)
(1.1686682 0.19845355 -6.7627167e-21)
(1.1827686 0.20003425 -1.3135454e-20)
(1.1904715 0.19884782 2.005427e-20)
(1.1932826 0.19547687 4.5090891e-20)
(1.1925259 0.19048319 -4.4898493e-20)
(1.1893029 0.18434714 -1.0499629e-19)
(1.1844325 0.17728769 2.53908e-20)
(0.075576839 -0.0036245199 -3.5639998e-20)
(0.21960072 -0.0044696363 -1.7528531e-19)
(0.36055957 0.011178239 8.4799548e-20)
(0.49569766 0.036185952 9.5366226e-20)
(0.62232221 0.06578423 5.9426211e-20)
(0.73804271 0.097138068 8.9042006e-21)
(0.84090057 0.12788138 -1.09485e-19)
(0.92957368 0.15608167 0)
(1.0034952 0.18036879 -7.1369447e-20)
(1.0628609 0.19992877 -1.5778372e-20)
(1.1085441 0.21444498 5.6487091e-20)
(1.1419449 0.22401709 1.1286065e-20)
(1.1648021 0.22905979 -4.6928401e-20)
(1.1789996 0.23019198 -5.036778e-20)
(1.1863964 0.22813139 2.5050675e-20)
(1.1886962 0.22360626 4.6142685e-20)
(1.1873657 0.21729191 -5.7101743e-20)
(1.1836005 0.20977515 -1.1014103e-19)
(1.1783289 0.20151964 -3.0878127e-21)
(1.1722128 0.19277821 2.763482e-20)
(0.088787599 0.0019145755 -3.8928703e-21)
(0.25248299 0.011711246 8.9457337e-20)
(0.40699248 0.03735119 -1.4932825e-20)
(0.55045361 0.070980576 -8.7233817e-20)
(0.68077721 0.10735252 4.6489083e-20)
(0.79611773 0.14336742 5.0044988e-20)
(0.89518808 0.17659198 5.7165619e-21)
(0.9774655 0.20522167 -1.0250922e-19)
(1.0432534 0.2281776 -2.5839007e-21)
(1.0936132 0.24504559 5.2076932e-20)
(1.1302006 0.25595486 6.157185e-21)
(1.1550493 0.26143788 -2.0345406e-20)
(1.1703447 0.26228253 -7.7751846e-20)
(1.1782234 0.25939294 -6.3496893e-21)
(1.1806222 0.25367485 4.457378e-20)
(1.1791862 0.24595406 3.7861292e-20)
(1.1752334 0.23692954 2.0133557e-20)
(1.1697656 0.2271562 -5.4461608e-20)
(1.1635111 0.21704245 1.2905554e-20)
(1.1569616 0.20684607 8.424284e-20)
(-0.00132299 0.0014521755 -8.8352834e-22)
(-0.0047609106 0.003191537 1.9021381e-21)
(-0.01079366 0.0041032907 1.6955105e-21)
(-0.017678121 0.0044588446 -1.2844646e-21)
(-0.024484437 0.004429698 -2.2194907e-21)
(-0.030784084 0.0041319704 2.3514675e-21)
(-0.036304162 0.003650286 -8.1622218e-21)
(-0.040869368 0.0030458453 -7.0460946e-21)
(-0.044384361 0.0023621902 1.2730981e-20)
(-0.046807905 0.0016300315 -1.0957179e-20)
(-0.048132683 0.00087078101 -2.0270044e-22)
(-0.048372479 9.9116605e-05 4.089547e-21)
(-0.0475537 -0.00067507775 -6.7190548e-22)
(-0.045709587 -0.0014451744 2.4926611e-20)
(-0.042876598 -0.0022064164 2.7705216e-22)
(-0.039093893 -0.0029544454 -4.4314559e-20)
(-0.034405741 -0.0036846809 8.2320977e-21)
(-0.028853252 -0.0043950653 2.5613212e-20)
(-0.022446774 -0.0050841227 -4.6946069e-20)
(-0.015248784 -0.0057028198 -2.9601929e-20)
(-0.001681764 0.0042276509 -5.6528578e-21)
(-0.0053943324 0.0092688182 9.8737765e-21)
(-0.011186232 0.011896024 -1.046863e-20)
(-0.017481897 0.012898292 5.4592481e-21)
(-0.023450424 0.012776284 6.4891618e-21)
(-0.02871448 0.011870774 8.9185595e-22)
(-0.033036893 0.010430234 -2.6900363e-20)
(-0.036268275 0.0086342795 -2.2840213e-21)
(-0.038330799 0.0066106876 2.2806137e-20)
(-0.039194592 0.0044495571 -5.6509267e-21)
(-0.038859408 0.0022136658 -2.4180518e-20)
(-0.037343056 -5.4001777e-05 5.3940494e-21)
(-0.034673787 -0.002324579 2.458981e-20)
(-0.030884971 -0.0045788064 1.122759e-20)
(-0.026011323 -0.0068029546 2.3845763e-20)
(-0.020089373 -0.0089846833 -2.1349353e-20)
(-0.013167306 -0.011111161 -2.3243903e-20)
(-0.0052966151 -0.013175822 2.2908499e-20)
(0.0035851579 -0.015164012 2.8529662e-20)
(0.013669072 -0.016907392 1.6623583e-20)
(-0.0023297823 0.0066200605 -4.590874e-21)
(-0.0064951336 0.014445324 -4.9292254e-21)
(-0.011748031 0.018483677 8.2399428e-23)
(-0.016836709 0.019962628 1.1853129e-23)
(-0.021120167 0.019667223 7.4591553e-21)
(-0.024319719 0.018138098 1.1751608e-20)
(-0.02626754 0.015770299 -4.3326163e-21)
(-0.026864639 0.012849546 -2.1115523e-20)
(-0.026067446 0.0095793786 7.3213782e-21)
(-0.023868686 0.0061035215 1.4292765e-20)
(-0.02028268 0.0025222004 6.5847226e-21)
(-0.015336253 -0.0010959796 1.971899e-20)
(-0.0090627769 -0.0047051451 1.8841098e-21)
(-0.0014978458 -0.0082751446 -3.6496026e-20)
(0.0073244978 -0.011784884 1.5152196e-21)
(0.017370233 -0.015215797 -2.3369251e-20)
(0.028582379 -0.018550497 -2.6537353e-20)
(0.040885864 -0.021780291 4.9285273e-20)
(0.054464688 -0.024851884 2.729186e-20)
(0.070005461 -0.027400096 4.4682025e-22)
(-0.0031445004 0.008418549 -5.6952372e-21)
(-0.0077807916 0.018220282 -1.0950494e-20)
(-0.012121136 0.023193517 4.4705115e-21)
(-0.01535716 0.024884575 4.6282469e-21)
(-0.017110101 0.024293854 2.1057376e-21)
(-0.01723953 0.022123115 8.540174e-21)
(-0.01567621 0.018886774 1.0605245e-20)
(-0.012393794 0.014957126 -1.5838729e-21)
(-0.0073992415 0.010599979 -1.2751067e-20)
(-0.00071995975 0.0060034794 -3.2041451e-20)
(0.0076058433 0.0012990248 1.5304365e-22)
(0.017534257 -0.0034233877 4.4263294e-20)
(0.029020032 -0.0081040528 -1.9658621e-20)
(0.042018133 -0.012704152 -1.3259098e-20)
(0.056487851 -0.017197694 3.2419654e-22)
(0.072391088 -0.021563883 3.4731207e-20)
(0.089656193 -0.025788172 -1.630722e-20)
(0.10816643 -0.029869459 -5.6683817e-20)
(0.12823339 -0.033691065 4.8251573e-20)
(0.15125072 -0.036570511 3.4981638e-20)
(-0.0039619324 0.009479223 -4.8243664e-22)
(-0.0088649911 0.020239666 -1.3212644e-20)
(-0.011805558 0.025540451 -3.7974951e-20)
(-0.0124936 0.027105505 -6.8877369e-21)
(-0.010861621 0.026066984 -3.3904033e-21)
(-0.0069369394 0.023239693 7.1303786e-21)
(-0.00077238174 0.019223148 -5.3768904e-21)
(0.0075663879 0.014451237 -9.8630881e-21)
(0.018006137 0.0092343989 2.4003605e-20)
(0.03047116 0.0037927709 5.4082578e-21)
(0.044887434 -0.0017194422 -2.7810475e-20)
(0.061182544 -0.0071964884 1.184532e-20)
(0.079286106 -0.012568259 0)
(0.099130301 -0.017790441 1.2978144e-20)
(0.12065293 -0.022835711 -1.0383158e-20)
(0.1437966 -0.0276862 -1.5440148e-20)
(0.16846178 -0.032340474 -1.07494e-21)
(0.19446789 -0.036825769 -2.576358e-21)
(0.22221386 -0.040959814 4.8026298e-20)
(0.25394895 -0.043601734 -1.1782426e-20)
(-0.0045946281 0.0097344861 -7.779785e-21)
(-0.0092916015 0.020321991 2.6388525e-20)
(-0.010192116 0.025267353 -1.1730652e-20)
(-0.0075561791 0.026328433 -2.9774039e-20)
(-0.0016532226 0.024680819 -2.9262875e-20)
(0.0073025668 0.021200115 -1.6277508e-20)
(0.019118867 0.016532314 -8.8307158e-22)
(0.033621516 0.011143735 6.0823019e-21)
(0.050656038 0.0053687194 2.1215736e-20)
(0.07008391 -0.00055474357 7.9478769e-21)
(0.091777524 -0.0064598415 -7.686842e-21)
(0.1156176 -0.012232177 -1.9619877e-21)
(0.14148939 -0.017796488 -4.1013259e-20)
(0.16928004 -0.023106909 -1.3578993e-20)
(0.19888031 -0.028138677 2.0376532e-20)
(0.23018573 -0.03288221 -2.2634696e-20)
(0.26304564 -0.037359779 -9.5456085e-21)
(0.29719067 -0.041655655 3.1779271e-20)
(0.33303297 -0.045557302 5.2730642e-20)
(0.37372834 -0.047353866 3.6054851e-21)
(-0.0048475974 0.009189637 1.7273706e-20)
(-0.0085675061 0.01846068 1.49331e-20)
(-0.0065981023 0.02236021 5.4224626e-20)
(0.00025299396 0.022547664 2.5251297e-20)
(0.011373409 0.020156403 1.9915834e-22)
(0.026351992 0.016069976 -4.2708124e-20)
(0.044844713 0.010940773 -2.6127702e-20)
(0.066556055 0.0052376725 1.1272662e-20)
(0.091232065 -0.00070379883 1.5483936e-20)
(0.11865001 -0.0066449847 -1.3940249e-20)
(0.14860706 -0.012419098 -4.735611e-20)
(0.18091132 -0.017913016 3.1815908e-20)
(0.21537418 -0.023054192 2.1230581e-20)
(0.25180465 -0.027801748 -2.9406494e-20)
(0.29000925 -0.032139689 1.2520238e-20)
(0.32979578 -0.036073607 2.565987e-20)
(0.3709269 -0.03965952 8.6623849e-21)
(0.41301786 -0.043069838 -1.2806701e-20)
(0.456405 -0.04613995 -1.4503376e-20)
(0.50507846 -0.046570061 7.3101015e-21)
(-0.0045292268 0.0079108973 1.1603879e-20)
(-0.0061895502 0.014806998 -2.5131422e-20)
(-0.00030283726 0.017037566 8.4993815e-21)
(0.011799668 0.016048471 3.5849677e-20)
(0.029169886 0.012851389 5.513092e-20)
(0.051196473 0.0082878198 2.1623983e-20)
(0.077374152 0.0029781085 -6.2355244e-21)
(0.10726747 -0.0026384755 -1.3110774e-20)
(0.14050214 -0.0082495604 -6.6825203e-21)
(0.17674529 -0.013635205 3.6627563e-20)
(0.21568683 -0.018644894 -4.9864953e-21)
(0.2570252 -0.023180596 -1.7897245e-20)
(0.30045649 -0.027184817 -2.0884715e-20)
(0.34566652 -0.03063313 -5.0586827e-20)
(0.39232985 -0.033529462 2.461278e-20)
(0.44011775 -0.03590597 -1.4931904e-20)
(0.48866599 -0.037865801 2.7664973e-20)
(0.53745992 -0.039704751 2.2361008e-20)
(0.58669255 -0.041429129 -8.8905341e-20)
(0.64099541 -0.040312213 2.5955725e-22)
(-0.0034583545 0.0060114031 2.2692145e-20)
(-0.001670284 0.0096473603 -2.7710331e-20)
(0.0094063132 0.0097329736 -4.7103855e-20)
(0.027949303 0.0074000817 -2.8744268e-20)
(0.052690121 0.0034672422 -2.1669852e-21)
(0.08281252 -0.0013138504 1.3924543e-20)
(0.11763637 -0.0063937222 -3.0215329e-21)
(0.15656702 -0.011394327 1.9225698e-20)
(0.1990812 -0.016053633 9.3985903e-21)
(0.24469989 -0.020193848 -1.2101002e-20)
(0.29296342 -0.02370166 9.5869216e-21)
(0.34341361 -0.02651341 -2.5462205e-20)
(0.39558091 -0.028604434 8.8298788e-21)
(0.44897613 -0.029982438 1.7856128e-20)
(0.50308938 -0.030683517 -2.9702437e-21)
(0.55740021 -0.030774052 1.8781399e-21)
(0.61136201 -0.030405063 -5.4955132e-22)
(0.66430791 -0.029979671 2.0912177e-20)
(0.71625376 -0.029698882 3.9947227e-21)
(0.77223645 -0.026916904 -1.9761219e-21)
(-0.0014650247 0.0036398683 2.4726793e-20)
(0.0054422973 0.0033888474 6.0163281e-20)
(0.023180212 0.0010926685 -5.1279318e-20)
(0.049470804 -0.0025253508 -1.0455879e-20)
(0.082738532 -0.0069118302 2.1369342e-20)
(0.121958 -0.011451758 2.2562791e-21)
(0.16625813 -0.015706501 -3.1427276e-20)
(0.21485764 -0.019395773 7.3875137e-21)
(0.26704751 -0.022341004 7.5064105e-21)
(0.32215906 -0.024437532 -2.7821073e-20)
(0.37953647 -0.025638988 1.3671613e-21)
(0.43851955 -0.025944581 -3.9534753e-20)
(0.49843441 -0.025388711 -3.8670367e-20)
(0.5585902 -0.024032645 6.9915207e-20)
(0.61828203 -0.021957215 5.9164804e-21)
(0.67679785 -0.019261883 -1.6119573e-20)
(0.73340362 -0.01610545 2.0498299e-20)
(0.78726979 -0.012792166 -9.6238073e-22)
(0.83793757 -0.0093458844 2.0909749e-20)
(0.88910063 -0.0042436202 -2.1191587e-20)
(-0.0066867742 -0.0059868283 6.2210298e-20)
(0.0033601713 -0.0065080222 1.6511105e-20)
(0.014828817 -0.006925283 -3.6793156e-20)
(0.027363228 -0.0071681713 1.7741421e-20)
(0.040685998 -0.007320323 0)
(0.054731226 -0.0074107799 0)
(0.06943506 -0.0074425009 -2.3769748e-20)
(0.084713036 -0.0074235048 -1.6953431e-20)
(0.10048955 -0.0073635987 1.9752223e-20)
(0.11670043 -0.0072699576 1.8638024e-20)
(0.13328658 -0.0071480605 1.0410331e-21)
(0.15019233 -0.0070027283 -1.0411168e-20)
(0.1673658 -0.0068381641 8.5558299e-21)
(0.18475856 -0.0066579334 1.8255914e-20)
(0.202325 -0.0064650881 -5.3944954e-21)
(0.22002198 -0.006262277 -1.0086309e-20)
(0.23780863 -0.0060518114 -4.2596498e-21)
(0.25564614 -0.0058357175 -4.2816232e-21)
(0.27349766 -0.0056157827 6.9770711e-22)
(0.29132826 -0.0053935924 1.2126359e-21)
(0.30910485 -0.0051705574 2.5783728e-21)
(0.32679625 -0.0049479359 6.4895938e-21)
(0.34437313 -0.0047268489 1.4726456e-22)
(0.36180813 -0.0045082932 -3.3515075e-21)
(0.37907584 -0.0042931501 1.3027547e-22)
(0.39615286 -0.004082193 -5.5569125e-22)
(0.4130178 -0.0038760936 1.1922232e-21)
(0.42965136 -0.0036754269 9.7279084e-22)
(0.44603623 -0.0034806769 -1.291436e-21)
(0.46215716 -0.0032922412 -1.0097675e-22)
(0.47800092 -0.0031104366 -3.9937844e-23)
(0.49355621 -0.0029355048 -3.300019e-22)
(0.50881368 -0.0027676184 -4.1002567e-22)
(0.52376581 -0.0026068872 8.9333317e-23)
(0.53840687 -0.0024533648 -1.2765616e-22)
(0.55273288 -0.0023070557 -1.9800665e-22)
(0.56674149 -0.0021679228 2.2532705e-22)
(0.58043202 -0.0020358941 2.554102e-22)
(0.59380527 -0.0019108733 -3.1852659e-23)
(0.60686394 -0.0017927429 -1.631779e-22)
(0.61961147 -0.0016813944 1.6393972e-23)
(0.63205609 -0.0015766828 -2.5370451e-23)
(0.64419888 -0.0014786421 8.0081878e-23)
(0.65607182 -0.0013869021 -1.497821e-23)
(0.66762616 -0.0013027212 -1.335078e-22)
(0.67906869 -0.0012229099 5.5506265e-24)
(0.689886 -0.0011595342 6.0798148e-24)
(0.70169571 -0.0010803907 -5.2293653e-24)
(0.71008094 -0.0010935084 2.5987176e-23)
(0.72749834 -0.00092284501 3.7139065e-22)
(0.023455346 -0.017623514 -1.3923006e-20)
(0.032535172 -0.019205255 -6.6735688e-20)
(0.043516456 -0.020431362 -3.2498514e-20)
(0.055532828 -0.021123594 4.0476856e-20)
(0.068191413 -0.021560556 1.5366276e-20)
(0.08150655 -0.021826516 -1.9225527e-20)
(0.095446609 -0.021922371 5.1635788e-21)
(0.10993013 -0.021870204 2.6192477e-20)
(0.12488895 -0.021699213 -1.6752293e-22)
(0.14026848 -0.021430002 -7.9546504e-21)
(0.15601676 -0.021078025 -1.2912741e-20)
(0.17208347 -0.020657093 -8.8517709e-21)
(0.18842129 -0.020179345 1.7916893e-20)
(0.20498558 -0.019655087 9.5542244e-21)
(0.22173382 -0.019093162 -1.6237628e-20)
(0.23862538 -0.018501281 -6.0090109e-21)
(0.2556214 -0.017886203 3.111838e-21)
(0.27268472 -0.017253876 8.1425672e-21)
(0.28977984 -0.016609567 6.9328588e-21)
(0.30687289 -0.015957963 -7.0623592e-21)
(0.32393162 -0.015303254 -3.3625885e-21)
(0.34092552 -0.014649183 1.5540049e-21)
(0.35782579 -0.013999096 6.4314252e-22)
(0.37460544 -0.013355977 1.2414806e-21)
(0.39123932 -0.012722467 2.3450762e-22)
(0.4077042 -0.012100894 -3.6988584e-22)
(0.42397876 -0.01149328 -7.4608733e-22)
(0.44004367 -0.010901363 1.062616e-21)
(0.45588154 -0.010326611 8.6625844e-22)
(0.47147696 -0.0097702321 -2.6388658e-22)
(0.48681646 -0.0092331964 5.9272746e-22)
(0.50188846 -0.0087162483 -2.2415897e-22)
(0.51668326 -0.0082199264 -4.0943497e-22)
(0.53119296 -0.0077445812 -6.2033326e-22)
(0.54541141 -0.0072903958 4.0872946e-22)
(0.55933414 -0.0068574056 -1.0578794e-22)
(0.57295833 -0.0064455212 2.1737173e-22)
(0.58628276 -0.0060545491 -4.6446498e-22)
(0.59930769 -0.0056842219 4.4327519e-22)
(0.61203526 -0.0053342089 6.068775e-23)
(0.62446834 -0.0050042051 -6.0491068e-23)
(0.63661455 -0.0046937959 2.1238259e-22)
(0.64847445 -0.0044031017 2.84975e-22)
(0.66007919 -0.0041310315 2.1575296e-22)
(0.67138009 -0.0038813634 2.2973687e-22)
(0.68258105 -0.0036445845 -1.7942592e-23)
(0.69317477 -0.0034567089 1.1739258e-22)
(0.70475654 -0.0032217403 1.0340229e-22)
(0.71297221 -0.0032612767 -2.0383263e-22)
(0.73008623 -0.002754512 -1.0562126e-23)
(0.08203134 -0.028206372 1.0251174e-20)
(0.089197316 -0.030858476 3.8385583e-21)
(0.099103822 -0.03283893 -1.3730953e-20)
(0.11005239 -0.033902425 -1.6278241e-21)
(0.12136556 -0.034586301 1.6031839e-20)
(0.13321407 -0.03502494 -1.5561974e-20)
(0.14563731 -0.035197941 -3.1371201e-20)
(0.15855592 -0.03513564 1.5322634e-20)
(0.17191289 -0.034885871 1.9050029e-20)
(0.1856714 -0.034480541 -1.2084958e-20)
(0.19979241 -0.033942581 1.0435762e-21)
(0.21423486 -0.033293047 8.4278013e-21)
(0.22895926 -0.032550808 -1.573673e-20)
(0.24392756 -0.031731947 3.7457672e-21)
(0.25910253 -0.030850334 7.788548e-21)
(0.27444776 -0.029918166 -4.9754946e-22)
(0.2899278 -0.028946227 -6.0492348e-23)
(0.30550824 -0.027944083 -7.6267188e-21)
(0.32115576 -0.026920268 4.4057791e-21)
(0.33683819 -0.025882429 8.6528873e-21)
(0.35252469 -0.02483744 -3.8931665e-21)
(0.36818577 -0.023791479 -2.1728041e-21)
(0.38379343 -0.022750099 8.89609e-22)
(0.39932124 -0.021718267 -1.7720859e-21)
(0.41474443 -0.020700408 1.3113194e-21)
(0.43003995 -0.019700427 6.9391793e-22)
(0.44518653 -0.018721739 1.7881391e-21)
(0.46016473 -0.017767292 -2.1631371e-21)
(0.47495693 -0.016839583 2.4543437e-21)
(0.48954735 -0.015940692 5.8923765e-22)
(0.50392206 -0.015072295 6.0540392e-22)
(0.51806893 -0.0142357 3.0207208e-22)
(0.53197759 -0.013431873 1.0108709e-21)
(0.5456394 -0.012661468 -1.5505169e-21)
(0.5590474 -0.011924859 4.310455e-22)
(0.57219626 -0.011222176 2.1605918e-22)
(0.58508221 -0.010553338 -7.8000429e-23)
(0.59770307 -0.0099180944 1.8198161e-23)
(0.61005808 -0.0093160659 -3.9984208e-22)
(0.62214835 -0.0087467687 2.2181897e-22)
(0.63397567 -0.0082097587 -2.9993722e-23)
(0.64554654 -0.0077044073 5.3644528e-22)
(0.65686056 -0.0072309714 -2.4888079e-22)
(0.66794734 -0.0067876955 3.7873495e-23)
(0.67875832 -0.0063808771 7.3334164e-23)
(0.68949197 -0.0059948548 -9.2652368e-23)
(0.6996526 -0.0056889992 -1.5559861e-22)
(0.71079272 -0.0053054808 5.082324e-22)
(0.71867929 -0.0053717252 1.8113784e-22)
(0.73520492 -0.0045445834 -8.5162988e-22)
(0.16615037 -0.036995467 1.809266e-21)
(0.17048422 -0.040701734 -1.1804371e-20)
(0.17858948 -0.043356216 6.5948276e-21)
(0.18785865 -0.04470024 -1.4055692e-20)
(0.19712801 -0.04559724 -2.0772785e-21)
(0.20677125 -0.046221358 9.9531541e-21)
(0.21694694 -0.046507865 -1.0881611e-20)
(0.22757462 -0.046486014 1.1337593e-21)
(0.23860536 -0.046219721 1.3357255e-20)
(0.25002523 -0.045749557 3.8147836e-21)
(0.2618121 -0.045102726 -6.3724514e-21)
(0.27393579 -0.044304901 -3.2112155e-21)
(0.28636584 -0.043379869 -5.5477367e-21)
(0.29907194 -0.042348193 -6.777786e-21)
(0.31202297 -0.041227759 2.7936935e-21)
(0.32518728 -0.040034489 3.0004596e-22)
(0.33853322 -0.038782653 1.5660691e-21)
(0.35202934 -0.037485068 -3.382139e-21)
(0.36564464 -0.036153293 -4.5727009e-21)
(0.37934878 -0.034797787 2.5165847e-21)
(0.39311225 -0.03342803 3.5070202e-21)
(0.40690657 -0.032052613 -1.8311829e-21)
(0.42070447 -0.030679304 1.6822728e-21)
(0.43447997 -0.029315098 -5.0824756e-22)
(0.44820853 -0.027966257 -4.2932398e-21)
(0.46186715 -0.026638343 -3.0597212e-21)
(0.47543441 -0.025336243 -2.913615e-22)
(0.48889056 -0.024064202 3.1445731e-22)
(0.50221755 -0.022825846 -2.2055643e-21)
(0.515399 -0.021624215 -1.0637956e-21)
(0.52842027 -0.020461796 2.1609093e-22)
(0.54126838 -0.019340558 -1.3924932e-21)
(0.55393204 -0.018261995 -6.1869153e-23)
(0.56640156 -0.017227163 -5.0852952e-22)
(0.57866887 -0.016236728 -4.3979833e-22)
(0.59072743 -0.015291012 -6.8732303e-22)
(0.60257221 -0.014390044 -1.0527092e-21)
(0.61419969 -0.013533607 -1.298849e-23)
(0.62560778 -0.012721306 -3.5048388e-24)
(0.63679615 -0.011952596 -6.1491572e-22)
(0.64776518 -0.011226981 -1.86039e-23)
(0.65851988 -0.010543703 -4.2116753e-22)
(0.66905849 -0.0099032307 -6.1795349e-22)
(0.67940855 -0.0093032347 4.9147276e-22)
(0.68952178 -0.008752509 1.3713791e-23)
(0.69958893 -0.0082295695 2.4263916e-22)
(0.70913105 -0.0078160579 -1.7796035e-22)
(0.71963916 -0.0072958061 -3.4501951e-22)
(0.72705488 -0.0073888512 -1.6569089e-23)
(0.74273553 -0.0062669977 4.8512853e-22)
(0.2718151 -0.043194392 -2.290654e-20)
(0.27240809 -0.047929484 4.991393e-20)
(0.27783597 -0.051166473 1.0726163e-20)
(0.28472036 -0.052726294 -1.6672328e-20)
(0.2912394 -0.053839141 -2.4899717e-21)
(0.29795563 -0.054695667 2.3737824e-21)
(0.30519427 -0.055170084 -2.0928316e-21)
(0.31287529 -0.055280225 -4.8688571e-21)
(0.32094646 -0.055099053 -4.1651119e-21)
(0.32941559 -0.054672499 -1.2620272e-20)
(0.33827891 -0.05402962 1.8906182e-20)
(0.34751641 -0.053198011 7.0107269e-21)
(0.35710521 -0.052204219 -1.7142605e-20)
(0.36702165 -0.051071907 9.9638849e-21)
(0.37723991 -0.049822048 7.9588312e-21)
(0.38773226 -0.048473601 -3.7707428e-22)
(0.39847 -0.047043855 -2.8024684e-21)
(0.40942392 -0.045548599 -4.2782088e-21)
(0.42056468 -0.044002275 -1.5993208e-21)
(0.43186311 -0.042418104 -1.4134875e-21)
(0.44329049 -0.040808197 -3.3721579e-21)
(0.45481885 -0.039183622 0)
(0.46642114 -0.037554467 -1.4963342e-21)
(0.47807139 -0.035929874 3.9896535e-21)
(0.48974491 -0.034318081 5.6959682e-21)
(0.50141835 -0.032726446 -9.0829194e-22)
(0.51306982 -0.031161477 -3.2979321e-21)
(0.52467895 -0.029628862 3.4689525e-21)
(0.5362269 -0.028133501 3.941e-23)
(0.54769646 -0.026679543 3.7826662e-21)
(0.55907197 -0.025270425 -5.0708713e-22)
(0.57033938 -0.023908919 1.8030295e-21)
(0.58148619 -0.022597181 -9.0918789e-22)
(0.59250146 -0.021336806 4.1499443e-22)
(0.60337574 -0.020128883 -5.4033811e-22)
(0.61410108 -0.018974053 5.8499345e-22)
(0.62467095 -0.017872576 5.384801e-22)
(0.6350803 -0.016824394 4.5257223e-22)
(0.64532544 -0.015829212 -1.1155875e-21)
(0.65540442 -0.014886535 7.9810404e-22)
(0.66531599 -0.013995925 -4.1963755e-22)
(0.67506339 -0.013156601 -1.3664692e-21)
(0.6846434 -0.012369328 1.7443351e-21)
(0.69408105 -0.011631321 -5.5071857e-23)
(0.70332859 -0.010953822 -1.9841266e-22)
(0.71256713 -0.01030997 -7.0522908e-24)
(0.72133911 -0.0098021633 -1.9538468e-22)
(0.73105774 -0.0091606993 -5.9305778e-22)
(0.73788597 -0.0092803974 7.8569994e-22)
(0.75250524 -0.0078977568 -5.0073939e-23)
(0.39402557 -0.045851623 -1.9216244e-20)
(0.39001545 -0.051646746 1.3239214e-20)
(0.39179513 -0.055418118 3.8202013e-21)
(0.39550914 -0.057220039 -8.1077726e-21)
(0.39860574 -0.05863211 1.2710407e-20)
(0.40174234 -0.059822983 8.1956043e-21)
(0.4054354 -0.060610077 -1.2884601e-20)
(0.4096223 -0.060996555 -6.3301577e-21)
(0.41423217 -0.061051592 1.3194597e-20)
(0.4192824 -0.060820245 -1.6504735e-20)
(0.42478497 -0.060332189 -1.4489433e-20)
(0.43072795 -0.059615483 1.5245519e-20)
(0.43709247 -0.058697615 7.0096881e-21)
(0.44385831 -0.057604183 -5.1674587e-21)
(0.45100247 -0.056358683 -1.3638627e-21)
(0.45849919 -0.054982803 -3.6162498e-21)
(0.46632096 -0.053496698 4.8385347e-21)
(0.47443927 -0.051919121 3.6872011e-21)
(0.48282513 -0.050267493 -3.1314144e-21)
(0.4914494 -0.048557969 3.1243313e-21)
(0.50028317 -0.046805494 2.9531733e-21)
(0.50929808 -0.045023851 -3.3746514e-21)
(0.51846653 -0.043225688 3.6725579e-22)
(0.52776191 -0.041422546 -3.1906467e-21)
(0.53715875 -0.039624879 8.1355273e-21)
(0.54663282 -0.03784208 6.5176268e-21)
(0.55616126 -0.036082507 1.0396142e-21)
(0.56572267 -0.034353509 -1.8383395e-21)
(0.5752971 -0.032661467 4.2637041e-21)
(0.58486611 -0.031011837 8.053086e-21)
(0.59441279 -0.029409194 2.3984238e-21)
(0.60392175 -0.027857289 3.7042638e-21)
(0.61337909 -0.026359115 2.1403128e-21)
(0.6227724 -0.024916963 8.5294417e-22)
(0.63209072 -0.023532499 -2.4636889e-22)
(0.64132454 -0.022206834 3.084916e-21)
(0.65046573 -0.020940601 6.9472846e-22)
(0.6595076 -0.019734034 3.1874128e-22)
(0.66844477 -0.018587068 5.7015494e-23)
(0.67727359 -0.017499384 1.2061025e-21)
(0.68599111 -0.016470717 4.2532729e-23)
(0.69459875 -0.015500377 5.7213539e-22)
(0.70309175 -0.014589518 -1.2658879e-22)
(0.71149246 -0.013735025 -3.9444034e-22)
(0.71975395 -0.012950514 -1.9775186e-22)
(0.72804627 -0.012204277 -5.4211744e-22)
(0.73593712 -0.011617624 2.3331321e-22)
(0.74474853 -0.010873093 -1.5993249e-22)
(0.75090328 -0.011019062 -4.4918939e-22)
(0.76429346 -0.0094155595 2.8041545e-22)
(0.52667389 -0.044046873 3.4518813e-21)
(0.51741814 -0.05094409 -1.9330628e-20)
(0.51461517 -0.055258414 -2.5751438e-21)
(0.51438491 -0.057490456 5.6948906e-21)
(0.51353091 -0.059425875 3.5692644e-21)
(0.51261515 -0.06114104 5.7401095e-22)
(0.5123137 -0.062427282 7.1467831e-21)
(0.51262397 -0.0632888 8.1361715e-21)
(0.51345367 -0.063780764 1.0100707e-20)
(0.51480722 -0.063938583 -1.1840143e-20)
(0.51670197 -0.063790908 -2.2887345e-20)
(0.51913104 -0.063366351 -4.4903634e-21)
(0.52207591 -0.062692903 1.6782163e-20)
(0.52551552 -0.061797704 1.3385694e-20)
(0.52942641 -0.060706811 -5.7521324e-21)
(0.53378233 -0.05944494 9.1980184e-22)
(0.53855491 -0.058035475 -4.1725764e-21)
(0.54371463 -0.056500532 3.0677539e-21)
(0.54923135 -0.054860938 -2.9335888e-22)
(0.55507472 -0.053136217 -1.9659035e-21)
(0.56121457 -0.051344579 8.4805683e-21)
(0.56762119 -0.049502934 -4.8459811e-22)
(0.57426564 -0.047626885 5.9617266e-22)
(0.5811199 -0.045730741 -4.6755546e-22)
(0.58815707 -0.043827523 -4.5065823e-21)
(0.5953515 -0.041928979 4.3987645e-21)
(0.60267887 -0.040045615 1.8460666e-21)
(0.61011629 -0.038186723 -3.4405113e-21)