/*--------------------------------*- C++ -*----------------------------------*\
  =========                 |
  \\      /  F ield         | OpenFOAM: The Open Source CFD Toolbox
   \\    /   O peration     | Website:  https://openfoam.org
    \\  /    A nd           | Version:  6
     \\/     M anipulation  |
\*---------------------------------------------------------------------------*/
FoamFile
{
    version     2.0;
    format      ascii;
    class       surfaceScalarField;
    location    "125";
    object      phi_0;
}
// * * * * * * * * * * * * * * * * * * * * * * * * * * * * * * * * * * * * * //

dimensions      [0 3 -1 0 0 0 0];

internalField   nonuniform List<scalar> 
18180
(
0.00031873427
-0.00016317006
-0.00015556421
0.0013092311
-0.001366957
0.0003764602
0.0030329334
-0.0033337033
0.001610001
0.0055498563
-0.0059760955
0.0034591726
0.0089183285
-0.0092392794
0.0058708073
0.013193005
-0.013079803
0.0088051265
0.018422206
-0.017460197
0.012230995
0.024644953
-0.022346247
0.0161235
0.031887813
-0.027703863
0.020461003
0.040161826
-0.033496459
0.025222445
0.04945982
-0.039683201
0.030385206
0.059754485
-0.046218083
0.035923419
0.070997605
-0.053049836
0.041806717
0.083120913
-0.060122682
0.047999374
0.096039178
-0.067378042
0.054459777
0.10965604
-0.074757303
0.061140441
0.12387203
-0.082205487
0.0679895
0.13859978
-0.089675552
0.074947797
0.15383787
-0.097150369
0.081912276
-0.10462756
0.088680527
0.16978491
0.00039750278
-0.00056067284
0.0016096173
-0.0025790715
0.003689369
-0.005413455
0.0066875346
-0.0089742611
0.010650795
-0.01320254
0.015618075
-0.018047083
0.021616538
-0.023458659
0.028657619
-0.029387328
0.036733395
-0.035779639
0.045813688
-0.042576751
0.055844324
-0.049713837
0.066746928
-0.057120687
0.078420463
-0.064723372
0.090744643
-0.072446863
0.10358497
-0.080218373
0.11679884
-0.087971172
0.13024171
-0.095648351
0.14377387
-0.10320772
0.15725941
-0.1106359
-0.1178634
0.17049525
0.0004806298
-0.0010413026
0.001918723
-0.0040171648
0.004352534
-0.0078472659
0.0078166606
-0.012438388
0.012337815
-0.017723694
0.01792942
-0.023638689
0.024586533
-0.030115772
0.032281571
-0.037082365
0.040961279
-0.044459348
0.050545437
-0.052160908
0.060927653
-0.060096054
0.071978449
-0.068171483
0.083550483
-0.076295406
0.095485519
-0.084381898
0.1076224
-0.092355249
0.11980494
-0.10015372
0.13188863
-0.10773205
0.14374404
-0.11506312
0.15524916
-0.12214103
-0.12891567
0.16630143
0.00056617664
-0.0016074793
0.002227969
-0.0056789571
0.0050006694
-0.010619966
0.0088941116
-0.01633183
0.013905411
-0.022734994
0.020012095
-0.029745373
0.027166766
-0.037270443
0.035293761
-0.04520936
0.044288265
-0.053453851
0.05401824
-0.061890883
0.064329226
-0.07040704
0.075051664
-0.078893921
0.086010064
-0.087253807
0.097033023
-0.095404857
0.10796295
-0.10328518
0.11866438
-0.11085515
0.12902999
-0.11809765
0.13898321
-0.12501634
0.14847503
-0.13163285
-0.13794645
0.15750581
0.00065089366
-0.0022583729
0.0025243694
-0.0075524328
0.0056036942
-0.013699291
0.0098645666
-0.020592702
0.015264763
-0.02813519
0.021736616
-0.036217226
0.029182743
-0.04471657
0.037475208
-0.053501825
0.04645836
-0.062437004
0.055955227
-0.071387751
0.065776838
-0.08022865
0.075733415
-0.088850498
0.085646095
-0.097166487
0.095357727
-0.10511649
0.10474148
-0.11266892
0.11370637
-0.11982004
0.12219945
-0.12659073
0.13020453
-0.13302142
0.13773785
-0.13916617
-0.1450687
0.14486009
0.00073064351
-0.0029890165
0.0027921143
-0.0096139037
0.0061266336
-0.01703381
0.010666811
-0.02513288
0.016322794
-0.033791172
0.022975433
-0.042869865
0.030474662
-0.052215799
0.038642666
-0.06166983
0.04728148
-0.071075817
0.056184033
-0.080290304
0.065147176
-0.089191793
0.07398486
-0.097688182
0.082539695
-0.10572132
0.090691446
-0.11326824
0.098361516
-0.120339
0.10551327
-0.1269718
0.11214865
-0.13322611
0.11830215
-0.13917492
0.12403326
-0.14489727
-0.15046431
0.12942887
0.0008007389
-0.0037897554
0.0030139436
-0.011827108
0.006532951
-0.020552818
0.011240144
-0.029840072
0.016992827
-0.039543855
0.02361871
-0.049495748
0.030918409
-0.059515498
0.03867353
-0.069424951
0.046658989
-0.079061276
0.054657601
-0.088288916
0.062474632
-0.097008823
0.06995008
-0.10516363
0.076967024
-0.11273827
0.083455083
-0.1197563
0.089389005
-0.12627292
0.094783113
-0.1323659
0.099683003
-0.138126
0.10415609
-0.14364801
0.1082826
-0.14902378
-0.15433447
0.11215276
0.00085606618
-0.0046458216
0.0031720865
-0.014143129
0.0067872776
-0.024168009
0.011529884
-0.034582679
0.017203544
-0.045217516
0.023586683
-0.055878887
0.030440024
-0.06636884
0.03751948
-0.076504407
0.044591937
-0.086133733
0.051451112
-0.095148091
0.057930695
-0.10348841
0.063912779
-0.11114571
0.069330574
-0.11815606
0.074165541
-0.12459127
0.078440015
-0.13054739
0.082207006
-0.13613289
0.085539078
-0.14145808
0.088518045
-0.14662698
0.091226751
-0.15173248
-0.15685287
0.093745144
0.0008902693
-0.0055360909
0.0032483065
-0.016501166
0.0068576672
-0.02777737
0.011492532
-0.039217544
0.016906897
-0.050631881
0.022838995
-0.061810985
0.029023771
-0.072553616
0.035209339
-0.082689975
0.04117399
-0.092098384
0.046740415
-0.10071452
0.051784619
-0.10853261
0.056238304
-0.1155994
0.060084961
-0.12200272
0.063350989
-0.12785729
0.066093873
-0.13329028
0.068389631
-0.13842865
0.070321416
-0.14338986
0.071970646
-0.14827621
0.073411255
-0.15317309
-0.15814844
0.074706826
0.00089982438
-0.0064359153
0.0032334004
-0.018834742
0.0067292009
-0.03127317
0.011111229
-0.043599572
0.016092548
-0.0556132
0.021384687
-0.067103124
0.026713937
-0.077882866
0.031839144
-0.087815182
0.036567075
-0.096826315
0.040762211
-0.10490965
0.044349352
-0.11211975
0.047309159
-0.11855921
0.049668142
-0.1243617
0.051485475
-0.12967463
0.05283911
-0.13464391
0.053813329
-0.13940287
0.054489145
-0.14406568
0.054938181
-0.14872524
0.055219835
-0.15345475
0.055380197
-0.1583088
-0.00020238131
0.00020238137
-8.7524958e-11
-0.00067775614
0.00047537494
-1.210523e-10
-0.0013424442
0.00066468818
-1.4489804e-10
-0.0021323223
0.00078987829
-1.6138328e-10
-0.0029958112
0.00086348903
-1.666663e-10
-0.0038907878
0.00089497673
-1.6024566e-10
-0.0047823515
0.00089156382
-1.4927015e-10
-0.0056409551
0.00085860371
-1.3455266e-10
-0.0064409342
0.00079997922
-1.2087576e-10
-0.0071593564
0.00071842222
-1.0732673e-10
-0.0077751025
0.00061574619
-9.6405789e-11
-0.0082681317
0.00049302928
-8.6278377e-11
-0.0086189016
0.00035076998
-7.8419707e-11
-0.008807935
0.0001890334
-7.076479e-11
-0.0088155643
7.6294167e-06
-6.4606357e-11
-0.008621956
-0.00019360828
-5.7881372e-11
-0.0082073737
-0.00041458226
-5.1855974e-11
-0.0075517733
-0.00065560036
-4.4781632e-11
-0.0066343972
-0.00091737612
-3.7746081e-11
-0.0011863057
-0.0054480914
-3.0014998e-11
-0.00018797714
0.00039035849
-0.00062501548
0.00091241324
-0.0012287692
0.0012684418
-0.0019352184
0.0014963275
-0.0026921709
0.0016204414
-0.0034563223
0.0016591281
-0.0041911101
0.0016263516
-0.004864904
0.0015323976
-0.0054495682
0.0013846433
-0.0059193261
0.0011881801
-0.0062498452
0.00094626526
-0.0064174949
0.00066067899
-0.006398742
0.00033201704
-0.0061696712
-4.0037331e-05
-0.0057056607
-0.00045638118
-0.0049813009
-0.00091796802
-0.0039706115
-0.0014252717
-0.0026469614
-0.0019792505
-0.00098291894
-0.0025814186
-0.0032019596
0.0010327349
-0.00015892982
0.0005492883
-0.00051889746
0.0012723808
-0.0010007808
0.0017503251
-0.0015412746
0.0020368213
-0.0020873682
0.0021665349
-0.0025937545
0.0021655143
-0.0030208854
0.0020534825
-0.0033333048
0.0018448169
-0.0034983025
0.0015496411
-0.0034848387
0.0011747163
-0.0032626595
0.00072408606
-0.0028015775
0.00019959697
-0.0020708379
-0.0003987226
-0.0010386046
-0.0010722707
0.00032846925
-0.001823455
0.0020655175
-0.0026550163
0.0042094211
-0.0035691753
0.0067985018
-0.0045683312
0.0098724532
-0.0056553699
-0.0067800641
0.013450558
-0.00011756799
0.00066685628
-0.00036700125
0.0015218141
-0.00067351747
0.0020568413
-0.00097482896
0.0023381327
-0.0012168542
0.0024085601
-0.0013515876
0.0023002477
-0.0013354419
0.0020373368
-0.0011277938
0.0016371687
-0.0006897868
0.0011116341
1.6620342e-05
0.00046830912
0.0010294382
-0.00028873179
0.0023872933
-0.0011582582
0.0041299738
-0.0021414031
0.0062989104
-0.0032412073
0.0089376831
-0.0044622277
0.012092577
-0.0058099106
0.015812959
-0.0072895571
0.020150974
-0.0089063461
0.025161335
-0.010665731
-0.012493143
0.030874414
-6.6907637e-05
0.00073376391
-0.00017916551
0.0016340719
-0.00026652975
0.0021442055
-0.00026768125
0.0023392842
-0.00012717371
0.0022680525
0.00020620302
0.0019668709
0.00078075162
0.0014627882
0.0016430367
0.00077488364
0.0028388545
-8.4183779e-05
0.0044140189
-0.0011068552
0.0064149245
-0.0022896375
0.0088889637
-0.0036322974
0.011884851
-0.0051372908
0.015452955
-0.0068093113
0.01964567
-0.0086549421
0.024518035
-0.010682276
0.030128617
-0.012900139
0.036540016
-0.015317744
0.043819629
-0.017945344
-0.020683303
0.052009789
-9.9835939e-06
0.0007437475
3.4539766e-05
0.0015895485
0.00019990238
0.0019788428
0.00054679006
0.0019923965
0.0011322893
0.0016825533
0.0020110481
0.0010881121
0.0032362398
0.00023759646
0.0048604464
-0.00084932292
0.0069363157
-0.0021600531
0.0095169359
-0.0036874755
0.012656044
-0.0054287458
0.016408131
-0.0073843841
0.020828367
-0.0095575263
0.02597244
-0.011953384
0.03189646
-0.014578962
0.038657256
-0.017443073
0.046313562
-0.020556445
0.054928077
-0.023932259
0.064571296
-0.027588564
-0.031406614
0.075294607
5.0753287e-05
0.00069299422
0.0002656661
0.0013746357
0.00070827431
0.0015362346
0.0014390681
0.0012616027
0.0025168832
0.00060473815
0.0039996628
-0.00039466757
0.0059450541
-0.0017077948
0.0084107968
-0.0033150657
0.011454854
-0.0052041104
0.015135381
-0.0073680025
0.019510457
-0.0098038213
0.024637556
-0.012511483
0.030572815
-0.015492786
0.037370134
-0.018750703
0.04508024
-0.022289068
0.053750145
-0.026112978
0.063423959
-0.030230259
0.074146279
-0.034654579
0.085971136
-0.039413422
-0.044389763
0.098954285
0.00011379912
0.0005791951
0.00050851499
0.00097991983
0.0012460094
0.0007987402
0.0023868278
0.00012078429
0.0039913229
-0.00099975693
0.0061199996
-0.0025233443
0.008833496
-0.0044212912
0.012192406
-0.0066739759
0.016256876
-0.0092685798
0.021085855
-0.012196982
0.026736064
-0.01545403
0.033260661
-0.019036081
0.040707659
-0.022939784
0.049118118
-0.027161162
0.058524246
-0.031695196
0.068947775
-0.036536507
0.080399782
-0.041682266
0.092883803
-0.0471386
0.10640734
-0.052936954
-0.058997123
0.1210147
0.00017849938
0.00040069572
0.00076004439
0.00039837483
0.0018053724
-0.00024658784
0.0033747752
-0.0014486185
0.0055290948
-0.0031540766
0.0083294674
-0.0053237169
0.011836698
-0.0079285222
0.01611034
-0.010947617
0.02120741
-0.01436565
0.02718077
-0.018170342
0.034077198
-0.022350457
0.041935183
-0.026894066
0.050782503
-0.031787104
0.060633582
-0.037012241
0.071486641
-0.042548255
0.083320688
-0.048370555
0.096093315
-0.054454893
0.10974203
-0.060787316
0.12419775
-0.06739267
-0.074276195
0.13947682
0.0002451315
0.0010199665
0.0023833797
0.0043939339
0.0071106646
0.010592074
0.014894547
0.020070429
0.026165782
0.033217886
0.041252635
0.050281987
0.0603016
0.071288734
0.083200256
0.095970142
0.10950475
0.12366523
0.13818484
0.15258917
-0.0035073755
-0.0019407159
-2.8524347e-11
-0.0012854871
-0.0022218884
-1.0097303e-11
0.0011952395
-0.0024807266
1.2076752e-11
0.0038779045
-0.002682665
3.7548316e-11
0.0067357043
-0.0028577999
6.736273e-11
0.0097513338
-0.0030156295
1.0216065e-10
0.012905859
-0.003154525
1.3995249e-10
0.016181257
-0.0032753984
1.8179374e-10
0.019561827
-0.0033805707
2.2690057e-10
0.023033352
-0.0034715247
2.7406382e-10
0.026582544
-0.0035491928
3.2021392e-10
0.03019698
-0.0036144366
3.6284668e-10
0.033865018
-0.0036680379
3.9801907e-10
0.037575661
-0.0037106435
4.2254577e-10
0.041318459
-0.0037427984
4.318549e-10
0.04508344
-0.0037649821
4.223138e-10
0.048861066
-0.003777626
3.8912408e-10
0.052642193
-0.003781127
3.2904145e-10
0.056418054
-0.0037758615
2.3840007e-10
0.060180252
-0.0037621976
1.161737e-10
0.063920755
-0.0037405034
-3.8161002e-11
0.067631908
-0.0037111531
-2.2109432e-10
0.07130644
-0.0036745317
-4.2768487e-10
0.074937477
-0.0036310362
-6.4738826e-10
0.078518555
-0.0035810764
-8.6784118e-10
0.082043629
-0.0035250735
-1.0699369e-09
0.085507089
-0.0034634581
-1.2338889e-09
0.088903757
-0.003396667
-1.3333703e-09
0.092228898
-0.0033251399
-1.3455052e-09
0.095478215
-0.0032493155
-1.2435916e-09
0.098647844
-0.0031696286
-1.0126839e-09
0.10173435
-0.0030865059
-6.3936397e-10
0.10473472
-0.003000364
-1.3410869e-10
0.10764632
-0.0029116072
4.854326e-10
0.11046695
-0.0028206259
1.1659502e-09
0.11319474
-0.0027277967
1.8481488e-09
0.11582822
-0.0026334835
2.4341089e-09
0.11836626
-0.0025380398
2.837711e-09
0.12080807
-0.0024418165
2.9498492e-09
0.12315323
-0.0023451618
2.7099146e-09
0.12540169
-0.0022484644
2.0710058e-09
0.12755377
-0.002152078
1.0689147e-09
0.12961047
-0.002056697
-1.9922706e-10
0.13157278
-0.0019623122
-1.5452678e-09
0.13344484
-0.0018720579
-2.7389627e-09
0.13522519
-0.0017803426
-3.5376278e-09
0.13693837
-0.0017131733
-3.6874892e-09
0.13854021
-0.0016018399
-3.1171299e-09
0.14023182
-0.0016916132
-1.7698592e-09
-0.0013366627
8.2334307e-10
0.0028534416
-0.0037614225
0.004950691
-0.0043191379
0.0072936657
-0.0048237013
0.009819923
-0.0052089223
0.012508402
-0.0055462788
0.015346778
-0.0058540053
0.01831831
-0.0061260572
0.021406592
-0.0063636809
0.024597607
-0.0065715851
0.027878591
-0.0067525091
0.031237414
-0.0069080157
0.034662595
-0.0070396175
0.038143278
-0.0071487206
0.041669117
-0.0072364822
0.045230194
-0.007303876
0.048816978
-0.0073517662
0.052420291
-0.0073809384
0.056031287
-0.0073921237
0.05964145
-0.0073860242
0.063242587
-0.0073633342
0.066826839
-0.0073247554
0.070386694
-0.0072710083
0.073915
-0.0072028382
0.077404983
-0.0071210186
0.080850257
-0.007026351
0.084244845
-0.0069196615
0.087583184
-0.0068017964
0.090860133
-0.0066736162
0.09407098
-0.0065359876
0.097211442
-0.006389777
0.10027766
-0.006235843
0.10326618
-0.0060750297
0.10617398
-0.0059081614
0.10899841
-0.0057360387
0.11173722
-0.0055594351
0.11438852
-0.0053790979
0.11695079
-0.0051957499
0.11942284
-0.0050100937
0.12180385
-0.0048228276
0.12409333
-0.0046346452
0.12629119
-0.0044463225
0.12839768
-0.0042585654
0.13041374
-0.0040727601
0.13234032
-0.0038888917
0.13418146
-0.0037131965
0.13593571
-0.0035345905
0.13762715
-0.0034046108
0.13921265
-0.0031873433
0.14088813
-0.0033670893
-0.0026708681
0.015021991
-0.0053328558
0.016853198
-0.0061503446
0.018906852
-0.006877356
0.021113026
-0.0074150963
0.023460086
-0.0078933382
0.025944378
-0.0083382979
0.028553286
-0.0087349654
0.031273331
-0.009083725
0.034093411
-0.0093916652
0.037003297
-0.0096623957
0.03999287
-0.0098975889
0.04305227
-0.010099017
0.046171973
-0.010268423
0.049342723
-0.010407233
0.052555493
-0.010516646
0.055801471
-0.010597745
0.05907207
-0.010651537
0.062358927
-0.010678981
0.065653921
-0.010681019
0.068949189
-0.010658602
0.072237144
-0.010612711
0.075510501
-0.010544365
0.078762296
-0.010454633
0.08198591
-0.010344633
0.085175087
-0.010215529
0.088323953
-0.010068527
0.091427026
-0.009904869
0.094479227
-0.0097258171
0.097475886
-0.0095326463
0.10041274
-0.0093266342
0.10328595
-0.0091090462
0.10609205
-0.0088811293
0.10882799
-0.0086441022
0.1114911
-0.008399149
0.11407908
-0.0081474162
0.11658999
-0.0078900114
0.11902225
-0.0076280083
0.12137461
-0.0073624524
0.12364616
-0.0070943839
0.12583636
-0.0068248382
0.12794501
-0.0065549756
0.1299723
-0.0062858539
0.13191908
-0.0060195443
0.13378623
-0.0057560424
0.13557764
-0.0055046031
0.13729195
-0.0052488954
0.13895226
-0.0050649287
0.1405178
-0.0047528821
0.14217386
-0.0050231438
-0.0040133145
0.032057807
-0.0065162485
0.033473113
-0.0075656509
0.035078735
-0.0084829781
0.036801696
-0.0091380577
0.038642683
-0.009734325
0.040607993
-0.010303608
0.042690456
-0.010817428
0.044880549
-0.011273818
0.047170697
-0.011681813
0.049553671
-0.01204537
0.052021765
-0.012365683
0.054567024
-0.012644276
0.057181437
-0.012882836
0.059856962
-0.013082758
0.062585539
-0.013245222
0.065359123
-0.013371329
0.068169735
-0.013462149
0.071009499
-0.013518744
0.073870682
-0.013542202
0.076745735
-0.013533655
0.079627326
-0.013494301
0.082508377
-0.013425416
0.085382096
-0.013328352
0.088242002
-0.013204539
0.091081954
-0.01305548
0.093896166
-0.01288274
0.096679229
-0.012687932
0.099426116
-0.012472704
0.10213219
-0.012238723
0.10479322
-0.01198766
0.10740535
-0.011721175
0.10996512
-0.011440903
0.11246946
-0.011148445
0.11491567
-0.010845356
0.1173014
-0.010533146
0.11962466
-0.010213274
0.12188381
-0.0098871565
0.12407754
-0.0095561769
0.12620486
-0.009221712
0.12826516
-0.0088851369
0.13025818
-0.0085479935
0.13218402
-0.0082116923
0.13404346
-0.0078789816
0.13583731
-0.0075498915
0.13756927
-0.0072365727
0.13923819
-0.0069178142
0.1408658
-0.0066925352
0.14241478
-0.0063018584
0.14405515
-0.0066635166
-0.0053799011
0.052650185
-0.0071566438
0.053490879
-0.0084063449
0.054485107
-0.0094772065
0.055567183
-0.010220134
0.056751925
-0.010919067
0.058053627
-0.01160531
0.059470801
-0.012234602
0.060998578
-0.012801596
0.06263275
-0.013315984
0.06436872
-0.013781339
0.066200966
-0.01419793
0.068123221
-0.014566531
0.070128721
-0.014888336
0.072210364
-0.015164402
0.074360805
-0.015395663
0.076572531
-0.015583056
0.078837952
-0.015727569
0.081149474
-0.015830266
0.08349957
-0.015892298
0.085880839
-0.015914924
0.088286056
-0.015899518
0.090708221
-0.015847581
0.093140597
-0.015760727
0.095576743
-0.015640685
0.098010549
-0.015489286
0.10043625
-0.01530844
0.10284845
-0.01510013
0.10524212
-0.014866379
0.10761264
-0.014609244
0.10995577
-0.014330782
0.11226763
-0.014033041
0.11454477
-0.013718039
0.11678408
-0.013387755
0.11898283
-0.013044111
0.12113866
-0.012688974
0.12324954
-0.012324153
0.12531379
-0.011951403
0.12733005
-0.011572444
0.12929733
-0.011188988
0.13121494
-0.010802751
0.13308261
-0.010415657
0.13490039
-0.010029473
0.13666902
-0.0096476151
0.13838931
-0.0092701809
0.1400648
-0.0089120616
0.14169462
-0.00854763
0.14329882
-0.0082967418
0.14484453
-0.0078475656
0.14648286
-0.0083018479
-0.0067938733
0.075223687
-0.0070857235
0.075328748
-0.0085114053
0.07555322
-0.0097016788
0.075853621
-0.010520536
0.076257989
-0.011323434
0.076783174
-0.012130496
0.077432215
-0.012883642
0.078205041
-0.013574422
0.079099962
-0.014210905
0.08011383
-0.014795207
0.081242402
-0.015326502
0.082480382
-0.015804512
0.083821589
-0.016229542
0.085259242
-0.016602055
0.086786165
-0.016922587
0.088394908
-0.017191798
0.090077853
-0.017410514
0.091827322
-0.017579735
0.093635673
-0.017700649
0.09549537
-0.01777462
0.097399048
-0.017803196
0.099339566
-0.0177881
0.10131006
-0.01773122
0.10330397
-0.017634592
0.10531507
-0.017500386
0.1073375
-0.017330877
0.1093658
-0.017128425
0.11139487
-0.016895448
0.11342002
-0.016634398
0.11543697
-0.016347733
0.11744183
-0.016037899
0.1194311
-0.015707307
0.12140166
-0.015358317
0.12335077
-0.014993228
0.12527607
-0.014614271
0.12717553
-0.014223609
0.12904747
-0.013823344
0.13089056
-0.013415535
0.13270381
-0.013002238
0.13448657
-0.012585513
0.13623859
-0.012167674
0.13795997
-0.011750853
0.13965148
-0.011339124
0.14131399
-0.010932695
0.14295095
-0.010549017
0.1445619
-0.010158576
0.14616505
-0.0098998977
0.14773268
-0.0094151974
0.14939457
-0.0099637294
-0.0082873489
0.098027375
-0.0061588137
0.097260192
-0.0077442224
0.096583997
-0.009025483
0.095999661
-0.0099362002
0.095543316
-0.010867089
0.095226193
-0.011813373
0.09505366
-0.01271111
0.095029721
-0.013550483
0.09515391
-0.014335094
0.095422961
-0.015064258
0.095832516
-0.015736056
0.096377165
-0.016349161
0.097050424
-0.016902801
0.097845062
-0.017396692
0.098753395
-0.01783092
0.099767453
-0.018205856
0.1008791
-0.018522162
0.10208016
-0.018780791
0.10336249
-0.018982985
0.10471812
-0.019130248
0.10613926
-0.019224334
0.10761839
-0.019267229
0.1091483
-0.019261133
0.11072214
-0.019208431
0.11233342
-0.019111671
0.11397608
-0.018973531
0.11564444
-0.018796785
0.11733327
-0.018584279
0.11903777
-0.018338897
0.12075356
-0.018063525
0.1224767
-0.017761036
0.12420365
-0.017434258
0.12593129
-0.017085959
0.1276569
-0.016718835
0.12937813
-0.016335499
0.131093
-0.015938486
0.13279992
-0.015530262
0.13449763
-0.015113241
0.13618523
-0.014689837
0.13786218
-0.014262469
0.13952836
-0.013833851
0.141184
-0.013406495
0.14283001
-0.012985132
0.14446743
-0.012570116
0.14609969
-0.012181282
0.1477269
-0.011785782
0.14936537
-0.01153837
0.15099301
-0.011042833
0.15271703
-0.011687755
-0.0099020899
0.11919112
-0.0043352414
0.1174986
-0.0060516972
0.11585917
-0.0073860498
0.11435673
-0.0084337631
0.11302753
-0.0095378866
0.11186907
-0.010654916
0.11088683
-0.011728866
0.11008708
-0.012750734
0.10946923
-0.013717251
0.1090287
-0.014623727
0.10875967
-0.015467027
0.10865548
-0.016244972
0.10870854
-0.016955858
0.10891053
-0.017598686
0.10925274
-0.018173125
0.10972622
-0.018679334
0.11032194
-0.019117884
0.1110309
-0.019489753
0.11184422
-0.019796304
0.11275322
-0.020039246
0.11374949
-0.020220605
0.11482496
-0.020342695
0.11597191
-0.020408089
0.11718306
-0.020419583
0.11845155
-0.020380161
0.11977098
-0.020292958
0.12113542
-0.020161225
0.12253942
-0.019988283
0.12397802
-0.019777495
0.12544673
-0.019532228
0.12694151
-0.019255822
0.12845882
-0.018951565
0.12999553
-0.018622671
0.13154896
-0.018272266
0.13311684
-0.017903382
0.13469731
-0.017518954
0.13628889
-0.017121839
0.13789048
-0.016714833
0.13950137
-0.01630073
0.14112124
-0.015882333
0.14275016
-0.015462775
0.14438863
-0.015044964
0.14603779
-0.014634297
0.14769899
-0.014231313
0.14937577
-0.013858055
0.15106888
-0.013478893
0.15279281
-0.013262308
0.15453136
-0.012781374
0.15636905
-0.013525451
-0.011689442
0.1368979
-0.0017563268
0.13438001
-0.0035337996
0.13182151
-0.0048275537
0.12946452
-0.0060767771
0.12733626
-0.0074096177
0.12541808
-0.0087367392
0.12371282
-0.010023612
0.12222558
-0.011263491
0.1209548
-0.012446471
0.11989471
-0.013563638
0.11903781
-0.014610123
0.11837574
-0.015582907
0.11789952
-0.016479639
0.11759962
-0.017298784
0.11746617
-0.018039676
0.11748916
-0.018702325
0.11765858
-0.0192873
0.1179645
-0.019795676
0.1183972
-0.020229004
0.11894723
-0.020589268
0.11960545
-0.020878831
0.12036316
-0.021100401
0.12121206
-0.021256994
0.12214436
-0.02135188
0.12315275
-0.02138855
0.12423046
-0.021370665
0.12537124
-0.021302006
0.1265694
-0.021186442
0.12781978
-0.021027876
0.12911776
-0.02083021
0.13045925
-0.020597311
0.13184066
-0.020332979
0.13325892
-0.020040926
0.1347114
-0.019724753
0.13619598
-0.019387955
0.13771093
-0.01903391
0.139255
-0.018665904
0.14082731
-0.018287148
0.14242744
-0.017900852
0.14405533
-0.017510231
0.14571142
-0.017118863
0.14739654
-0.016730082
0.1491122
-0.016349955
0.15086014
-0.015979256
0.15264415
-0.015642062
0.15446575
-0.015300499
0.15633772
-0.015134276
0.15824983
-0.014693485
0.16026438
-0.015540004
-0.013709436
0.1500537
0.00077913886
0.14676481
-0.00024490703
0.14346754
-0.001530278
0.14041983
-0.0030290678
0.13762501
-0.0046148001
0.13507683
-0.0061885581
0.13277712
-0.007723904
0.13072597
-0.0092123409
0.12892094
-0.01064144
0.12735682
-0.011999526
0.12602581
-0.013279105
0.12491848
-0.014475579
0.12402466
-0.015585822
0.1233337
-0.016607822
0.12283461
-0.017540587
0.12251628
-0.018383999
0.12236765
-0.019138663
0.12237779
-0.019805817
0.12253605
-0.020387268
0.12283212
-0.020885332
0.12325607
-0.021302786
0.12379848
-0.021642806
0.1244504
-0.021908921
0.12520348
-0.022104956
0.12604991
-0.022234983
0.12698251
-0.02230326
0.12799469
-0.022314185
0.12908048
-0.022272241
0.13023455
-0.022181946
0.13145215
-0.022047809
0.13272913
-0.02187429
0.13406192
-0.021665766
0.1354475
-0.021426502
0.13688338
-0.021160641
0.13836761
-0.020872185
0.13989871
-0.020565008
0.14147567
-0.020242868
0.14309796
-0.019909436
0.14476549
-0.019568375
0.1464786
-0.019223344
0.14823814
-0.018878402
0.15004539
-0.018537329
0.15190232
-0.018206893
0.15381117
-0.017888107
0.15577612
-0.017607004
0.15779937
-0.017323756
0.15989259
-0.017227492
0.16204998
-0.016850872
0.16431665
-0.017806677
-0.016027011
0.1889112
0.0053811385
-0.1935132
0.18510126
0.003565032
0.18170933
0.0018616551
0.17856431
0.00011595157
0.17562886
-0.001679352
0.17287795
-0.0034376489
0.17029336
-0.0051393099
0.16786608
-0.0067850693
0.16559225
-0.0083676103
0.16346971
-0.0098769837
0.1614966
-0.011305991
0.1596708
-0.012649782
0.15798968
-0.013904703
0.15644995
-0.015068088
0.15504768
-0.016138318
0.15377841
-0.017114728
0.15263721
-0.017997466
0.15161879
-0.018787399
0.15071758
-0.019486052
0.14992779
-0.020095544
0.14924353
-0.02061853
0.14865886
-0.021058131
0.14816782
-0.021417886
0.14776455
-0.021701684
0.14744327
-0.021913704
0.14719837
-0.022058361
0.14702443
-0.022140237
0.14691621
-0.022164029
0.14686876
-0.022134494
0.14687735
-0.022056396
0.14693752
-0.021934463
0.1470451
-0.021773348
0.1471962
-0.021577602
0.14738721
-0.02135165
0.14761481
-0.021099784
0.14787597
-0.020826162
0.14816793
-0.020534829
0.14848824
-0.020229745
0.14883473
-0.019914865
0.14920553
-0.019594146
0.1495991
-0.019271978
0.15001423
-0.01895246
0.15045018
-0.018642835
0.15090643
-0.01834436
0.15138365
-0.018084224
0.15188171
-0.017821812
0.15240518
-0.017750961
0.15294966
-0.017395353
0.15353857
-0.018395588
-0.01662392
0.21686001
0.0087793688
-0.22025824
0.21338623
0.0070388138
0.21017352
0.0050743608
0.20706832
0.0032211537
0.20402184
0.0013671284
0.20106504
-0.00048084855
0.1982148
-0.0022890735
0.19547564
-0.0040459099
0.19285346
-0.005745429
0.19035509
-0.007378613
0.18798573
-0.0089366313
0.18574878
-0.010412831
0.18364623
-0.011802156
0.18167879
-0.013100647
0.17984592
-0.014305448
0.17814599
-0.015414803
0.17657647
-0.016427942
0.17513403
-0.017344961
0.17381473
-0.018166751
0.17261412
-0.018894927
0.17152734
-0.019531751
0.17054927
-0.020080063
0.16967459
-0.020543206
0.16889787
-0.020924962
0.16821364
-0.021229475
0.16761646
-0.021461185
0.16710098
-0.021624759
0.16666198
-0.021725023
0.16629439
-0.021766905
0.16599336
-0.02175537
0.16575427
-0.021695372
0.16557274
-0.021591814
0.16544464
-0.021449508
0.16536615
-0.021273153
0.16533369
-0.021067323
0.16534399
-0.020836462
0.16539406
-0.020584908
0.16548123
-0.020316914
0.16560311
-0.020036741
0.16575762
-0.019748659
0.16594304
-0.019457391
0.16615797
-0.019167397
0.16640145
-0.018886314
0.166673
-0.018615912
0.16697251
-0.018383732
0.16730123
-0.018150534
0.16765847
-0.018108198
0.16805248
-0.017789358
0.16846555
-0.018808664
-0.017102158
0.24376877
0.011503227
-0.24649263
0.24091843
0.0098891511
0.23806532
0.0079274685
0.23521847
0.0060680083
0.23234078
0.0042448179
0.22945308
0.0024068527
0.22658659
0.00057741942
0.2237606
-0.0012199227
0.22099104
-0.0029758657
0.21829383
-0.00468141
0.21568285
-0.0063256479
0.21316909
-0.0078990672
0.21076115
-0.0093942238
0.20846561
-0.010805105
0.20628709
-0.01212693
0.20422848
-0.013356193
0.20229113
-0.014490594
0.20047509
-0.015528917
0.19877927
-0.016470929
0.19720164
-0.017317297
0.19573939
-0.0180695
0.19438907
-0.018729743
0.19314673
-0.019300871
0.19200806
-0.019786287
0.19096845
-0.020189863
0.19002313
-0.020515867
0.18916725
-0.020768875
0.18839592
-0.020953698
0.18770432
-0.02107531
0.18708773
-0.021138777
0.18654156
-0.021149204
0.18606142
-0.021111675
0.18564314
-0.021031219
0.18528276
-0.020912775
0.18497661
-0.020761171
0.18472127
-0.020581127
0.18451363
-0.020377263
0.18435084
-0.02015413
0.18423039
-0.019916293
0.18415008
-0.019668349
0.18410804
-0.019415349
0.1841028
-0.019162155
0.1841332
-0.01891671
0.18419885
-0.018681563
0.18429888
-0.018483767
0.18443605
-0.018287705
0.18460401
-0.018276162
0.18482467
-0.018010012
0.18503431
-0.019018309
-0.01743925
0.26927632
0.013536097
-0.2713092
0.26710837
0.012057108
0.2647667
0.010269138
0.26232757
0.0085071379
0.25979892
0.0067734655
0.25719094
0.0050148388
0.25452973
0.0032386217
0.25183949
0.0014703229
0.2491402
-0.00027657495
0.24645167
-0.0019928798
0.24379319
-0.0036671688
0.2411819
-0.0052877754
0.23863252
-0.0068448467
0.23615755
-0.0083301328
0.23376727
-0.0097366587
0.23146987
-0.011058784
0.22927151
-0.012292233
0.22717659
-0.013434
0.22518792
-0.014482259
0.22330689
-0.015436269
0.22153368
-0.016296291
0.21986742
-0.017063487
0.21830638
-0.017739828
0.21684809
-0.018327995
0.21548951
-0.018831284
0.21422716
-0.019253514
0.21305721
-0.01959893
0.21197563
-0.019872116
0.21097823
-0.020077913
0.21006079
-0.020221336
0.20921909
-0.020307507
0.20844901
-0.020341591
0.20774654
-0.020328746
0.20710784
-0.020274082
0.20652931
-0.020182636
0.20600755
-0.020059363
0.20553942
-0.019909141
0.2051221
-0.019736803
0.20475301
-0.01954721
0.20442995
-0.019345283
0.204151
-0.0191364
0.20391469
-0.018925846
0.20371978
-0.018721797
0.20356599
-0.018527775
0.20345188
-0.018369659
0.20338141
-0.018217233
0.20334342
-0.018238176
0.2033712
-0.018037794
0.20335961
-0.019006714
-0.017612963
0.29298687
0.014867176
-0.29431795
0.29150769
0.013536283
0.28978527
0.011991558
0.28788672
0.010405694
0.28584689
0.0088132924
0.28367661
0.0071851203
0.28139428
0.0055209462
0.27902316
0.0038414469
0.27658454
0.0021620455
0.27409858
0.00049307515
0.2715855
-0.0011540806
0.269065
-0.0027672796
0.26655542
-0.0043352675
0.26407335
-0.0058480626
0.26163353
-0.0072968379
0.25924872
-0.0086739785
0.2569297
-0.0099732037
0.25468526
-0.011189568
0.25252241
-0.012319405
0.25044641
-0.013360271
0.24846099
-0.01431087
0.24656848
-0.015170976
0.24476998
-0.01594133
0.24306554
-0.016623553
0.24145429
-0.017220035
0.23993462
-0.017733841
0.23850429
-0.018168606
0.23716061
-0.018528432
0.2359005
-0.0188178
0.23472063
-0.019041473
0.23361755
-0.019204419
0.23258769
-0.019311734
0.23162752
-0.019368581
0.23073358
-0.01938014
0.22990252
-0.019351576
0.22913117
-0.019288012
0.22841657
-0.019194539
0.227756
-0.019076235
0.22714702
-0.018938235
0.22658751
-0.01878577
0.22607564
-0.018624527
0.22561002
-0.018460224
0.22518943
-0.01830121
0.22481375
-0.018152097
0.22448118
-0.018037086
0.22419651
-0.017932564
0.22394492
-0.017986589
0.22376807