/*--------------------------------*- C++ -*----------------------------------*\
  =========                 |
  \\      /  F ield         | OpenFOAM: The Open Source CFD Toolbox
   \\    /   O peration     | Website:  https://openfoam.org
    \\  /    A nd           | Version:  6
     \\/     M anipulation  |
\*---------------------------------------------------------------------------*/
FoamFile
{
    version     2.0;
    format      ascii;
    class       volVectorField;
    location    "103";
    object      U;
}
// * * * * * * * * * * * * * * * * * * * * * * * * * * * * * * * * * * * * * //

dimensions      [0 1 -1 0 0 0 0];

internalField   nonuniform List<vector> 
9200
(
(0.0010398239 0.0014197296 -5.9205569e-20)
(0.013678148 -0.0020594684 4.6045878e-20)
(0.038317683 -0.0058684998 -3.8504384e-20)
(0.072282056 -0.0097662778 -6.0261732e-20)
(0.11377601 -0.013493664 1.8828397e-20)
(0.16159627 -0.016610167 3.2746189e-20)
(0.21469135 -0.018822672 -1.2269015e-20)
(0.27209071 -0.019980161 9.269645e-21)
(0.33288579 -0.020018388 1.6804479e-20)
(0.39619802 -0.018937131 1.4849137e-21)
(0.46115501 -0.016788839 -2.1458017e-20)
(0.52688102 -0.013667744 2.0671698e-20)
(0.59249918 -0.0096990583 -4.042528e-20)
(0.65714366 -0.0050279569 -2.113583e-20)
(0.71998033 0.0001921743 5.9051621e-21)
(0.78023318 0.0058094038 -2.5134284e-20)
(0.83723053 0.01169671 2.5220048e-20)
(0.89052962 0.017900876 2.2247093e-20)
(0.93973167 0.024554132 -2.9855576e-22)
(0.98211225 0.028272577 -1.6682426e-21)
(0.0052529937 -0.0013467117 -1.7060421e-20)
(0.026965588 -0.0089905878 3.975041e-20)
(0.061676324 -0.014812306 2.3577899e-20)
(0.10630488 -0.019175717 -1.157047e-19)
(0.15874995 -0.022218311 -1.2727989e-20)
(0.21755252 -0.023725832 7.3301475e-20)
(0.28139695 -0.023601049 -3.5478723e-20)
(0.34903514 -0.02187571 -8.391096e-21)
(0.41927347 -0.018653067 3.4289932e-20)
(0.49094868 -0.014089207 -4.3262819e-20)
(0.56291622 -0.0083851866 -3.0341044e-20)
(0.63405656 -0.0017767684 7.1928166e-20)
(0.70329497 0.0054771936 3.8297576e-20)
(0.76963034 0.013106299 -6.7983664e-20)
(0.83216902 0.0208385 1.4625463e-20)
(0.8901581 0.028404751 -3.6737792e-20)
(0.94302718 0.035553229 -1.3778495e-20)
(0.99048974 0.042122836 7.0985169e-20)
(1.0324121 0.047695589 2.9648295e-20)
(1.0669889 0.049118492 -8.3485001e-20)
(0.010859646 -0.0040430152 3.6775558e-20)
(0.043957678 -0.015433011 2.5048676e-21)
(0.090523565 -0.022555281 2.2343259e-20)
(0.147124 -0.026501261 9.8122468e-22)
(0.21136007 -0.027891008 -4.0776819e-20)
(0.28149041 -0.02680056 1.857738e-20)
(0.35589849 -0.023388861 1.3421244e-20)
(0.43302345 -0.017928341 -5.0331078e-20)
(0.51136323 -0.010743142 5.7265989e-20)
(0.58946925 -0.002192111 1.4258055e-20)
(0.66595636 0.0073388539 -5.4305685e-20)
(0.73953093 0.01745028 -1.8239503e-20)
(0.80902908 0.027745517 9.0588705e-21)
(0.87345737 0.037847019 2.3447474e-20)
(0.93202907 0.047410437 -1.1364146e-20)
(0.98418893 0.056133875 2.7881132e-20)
(1.0296282 0.063772466 -2.0190498e-20)
(1.0683171 0.070185981 -7.0133309e-20)
(1.1003824 0.075099229 -2.3800056e-20)
(1.1249588 0.076619523 4.8664395e-20)
(0.017958906 -0.0064228848 2.4509316e-20)
(0.064782589 -0.020696984 5.1042131e-20)
(0.12486252 -0.0280641 1.9882782e-20)
(0.19448504 -0.030468148 1.2990614e-20)
(0.27097015 -0.029099611 1.7276569e-20)
(0.35227521 -0.02439434 -4.7722999e-20)
(0.43646331 -0.016831877 -2.5648511e-20)
(0.52165722 -0.0069831215 0)
(0.60607083 0.0045599822 1.3922419e-20)
(0.688033 0.017203986 -5.8535359e-21)
(0.76602436 0.030365346 -9.7943758e-20)
(0.83872597 0.043490065 -1.5775785e-20)
(0.90506812 0.056075884 6.5110818e-20)
(0.96426895 0.067692063 4.835344e-22)
(1.0158562 0.077994145 -1.5727482e-21)
(1.059667 0.086731594 2.1960242e-20)
(1.0958268 0.093755309 -5.2656027e-21)
(1.124727 0.099046643 -6.1037482e-20)
(1.146909 0.10257662 -4.5857686e-20)
(1.1623372 0.10339177 6.9527487e-20)
(0.026581641 -0.0082064789 -3.919559e-21)
(0.089351056 -0.024035785 -5.12588e-21)
(0.16431998 -0.030268249 5.6602344e-20)
(0.24759939 -0.029813963 1.8540223e-20)
(0.33626568 -0.024517487 -3.1956827e-20)
(0.4279811 -0.015244742 1.2164524e-20)
(0.52050791 -0.0028566446 2.6404669e-21)
(0.61170376 0.011731365 3.3611942e-20)
(0.69959144 0.027633854 5.6604337e-21)
(0.78241594 0.044021764 -1.3206412e-20)
(0.85870386 0.060139808 6.016115e-20)
(0.92732012 0.075331435 -5.801466e-20)
(0.98750798 0.089062503 -1.3218059e-19)
(1.0389036 0.10093716 -5.5779468e-21)
(1.0815216 0.11070358 8.3160945e-20)
(1.1157125 0.11824881 0)
(1.1420994 0.12358881 1.0120048e-20)
(1.1615087 0.12687177 -1.5461696e-20)
(1.174857 0.12827821 -8.6005988e-21)
(1.1827037 0.12742709 2.0994489e-20)
(0.036669702 -0.0090903738 -5.4309685e-21)
(0.11732365 -0.024687545 4.3580854e-21)
(0.20813335 -0.028143172 -8.7634063e-21)
(0.30517795 -0.023418422 2.8473825e-20)
(0.40536245 -0.013079371 -2.9394395e-20)
(0.50610431 0.0015185843 -1.6928113e-20)
(0.6049429 0.019090825 3.7366145e-20)
(0.69959194 0.038360537 4.7596566e-21)
(0.78804963 0.058162342 -2.4439026e-20)
(0.86868206 0.077476887 6.987404e-20)
(0.94028893 0.095451466 5.2314844e-22)
(1.0021449 0.11142309 -8.0453516e-20)
(1.0540055 0.12493293 0)
(1.0960744 0.13572587 3.954706e-20)
(1.1289372 0.14373505 5.5243366e-21)
(1.1534704 0.14905377 -7.7575431e-20)
(1.170739 0.15190222 -1.9589177e-20)
(1.1818997 0.15260508 -1.2469073e-20)
(1.188094 0.15150588 -1.4711155e-20)
(1.1901785 0.14856331 4.04251e-20)
(0.048062255 -0.0087681261 -1.7278571e-20)
(0.14809315 -0.021933888 -2.2203266e-21)
(0.25515751 -0.020800274 3.0381762e-20)
(0.36548728 -0.010415452 3.7485821e-20)
(0.47593387 0.0058988305 -1.9945807e-20)
(0.5837779 0.026266444 -6.9167733e-20)
(0.68648178 0.048974126 -2.7998242e-20)
(0.78180561 0.07241428 7.8935582e-20)
(0.86794803 0.095208281 8.5791633e-21)
(0.94363656 0.11624444 -2.4875424e-20)
(1.0081735 0.13469185 1.364285e-20)
(1.061434 0.15000764 -4.3201752e-21)
(1.1038148 0.16192702 0)
(1.1361409 0.17043294 2.7206369e-20)
(1.1595457 0.17570996 -7.933096e-20)
(1.1753407 0.17808881 -3.1478935e-20)
(1.1848931 0.17799158 8.1063379e-20)
(1.1895258 0.17589136 -4.297658e-21)
(1.1904344 0.1722361 3.5564312e-21)
(1.1885375 0.16717223 2.7114835e-20)
(0.060489226 -0.0069579291 -3.2415709e-20)
(0.18078921 -0.015171774 -8.1628047e-20)
(0.30390806 -0.0075851343 2.5793031e-21)
(0.42645117 0.0097018081 7.0165667e-20)
(0.54538324 0.032630106 6.242809e-20)
(0.65801796 0.058818592 -7.1578544e-20)
(0.76194986 0.086174834 -2.8208403e-22)
(0.8552268 0.11285011 8.5530283e-20)
(0.93649897 0.13737533 4.8832291e-20)
(1.0050874 0.15868948 -5.4223753e-20)
(1.060981 0.17612995 -9.2343215e-20)
(1.1047683 0.18940621 -3.1592952e-21)
(1.1375181 0.19855032 4.2132072e-20)
(1.1606273 0.20384764 -6.6063173e-21)
(1.1756623 0.2057575 -1.2870036e-20)
(1.1842128 0.20483483 1.9692618e-20)
(1.1877757 0.20166308 4.3885096e-20)
(1.1876762 0.19680862 -4.3863763e-20)
(1.1850244 0.19076037 -1.0233285e-19)
(1.1806523 0.18375424 2.4569919e-20)
(0.073541747 -0.0034332993 -3.4981438e-20)
(0.21423965 -0.0039897215 -1.7389207e-19)
(0.35253702 0.011838849 8.2108071e-20)
(0.48565532 0.037018151 9.2772795e-20)
(0.61088703 0.066835632 5.7973905e-20)
(0.7258052 0.098481296 8.6113483e-21)
(0.82838936 0.12959678 -1.0624782e-19)
(0.91723337 0.15824184 0)
(0.99167165 0.18302623 -6.8755345e-20)
(1.051796 0.20310876 -1.5204044e-20)
(1.0983812 0.21814366 5.4708585e-20)
(1.1327419 0.22820409 1.0974459e-20)
(1.15655 0.23368403 -4.5618153e-20)
(1.1716435 0.2351891 -4.9085897e-20)
(1.1798549 0.2334313 2.4290139e-20)
(1.1828774 0.22913964 4.4827436e-20)
(1.1821793 0.22299489 -5.560597e-20)
(1.1789647 0.21559205 -1.0752174e-19)
(1.1741739 0.20740502 -3.1513357e-21)
(1.1684824 0.19870065 2.704904e-20)
(0.08665547 0.0019613781 -3.5454483e-21)
(0.24697405 0.01181681 8.7917205e-20)
(0.39886915 0.037493068 -1.6477652e-20)
(0.5404332 0.071219746 -8.4314994e-20)
(0.6695331 0.10779068 4.5167396e-20)
(0.78425772 0.14411719 4.9178062e-20)
(0.88323029 0.17775802 5.5361291e-21)
(0.96582093 0.20688536 -9.9510539e-20)
(1.0322187 0.2303872 -2.5050975e-21)
(1.0833744 0.24781312 5.0508155e-20)
(1.1208471 0.25925881 5.9860263e-21)
(1.146594 0.26523013 -1.9719067e-20)
(1.1627468 0.26649742 -7.5711459e-20)
(1.1714104 0.26395658 -6.2558255e-21)
(1.1745082 0.25851308 4.3537192e-20)
(1.1736849 0.25099827 3.7025255e-20)
(1.1702667 0.24212011 1.9794933e-20)
(1.1652671 0.23244385 -5.3000558e-20)
(1.159427 0.22238836 1.2957632e-20)
(1.1532495 0.21222136 8.2666426e-20)
(-0.0012933596 0.0014347685 -1.1234611e-21)
(-0.0047463086 0.003187641 2.0648216e-21)
(-0.010772115 0.0041361814 8.7974774e-22)
(-0.017755489 0.0045398221 -2.4410301e-21)
(-0.024741932 0.0045656834 -1.4117802e-21)
(-0.031301557 0.0043262666 1.5463091e-21)
(-0.037163561 0.0039037138 -6.8709585e-21)
(-0.042149851 0.0033578355 -5.958071e-21)
(-0.046160258 0.0027314259 1.1173383e-20)
(-0.049148638 0.0020548005 -9.7439657e-21)
(-0.051102957 0.0013491905 -1.9834003e-22)
(-0.052032489 0.00062922741 3.6678449e-21)
(-0.051959407 -9.5173467e-05 -6.3302408e-22)
(-0.050913055 -0.00081730908 2.2821856e-20)
(-0.04892633 -0.0015323238 3.0401539e-22)
(-0.046035142 -0.0022357595 -4.0888805e-20)
(-0.042280711 -0.0029229662 7.5397605e-21)
(-0.037701328 -0.0035918559 2.3867731e-20)
(-0.032305401 -0.0042409298 -4.3859262e-20)
(-0.026152335 -0.0048221829 -2.7743676e-20)
(-0.0016523201 0.004181177 -5.3721034e-21)
(-0.0053978563 0.0092687825 1.0866042e-20)
(-0.011219249 0.012008231 -1.0192394e-20)
(-0.017659137 0.013154572 3.9236237e-21)
(-0.023857859 0.01319616 4.8128983e-21)
(-0.029434978 0.012463353 7.1333895e-22)
(-0.034154115 0.011197484 -2.251234e-20)
(-0.037862196 0.0095741806 -2.0372586e-21)
(-0.04047602 0.0077190632 2.0165968e-20)
(-0.041960422 0.0057210814 -5.047974e-21)
(-0.042310099 0.0036424755 -2.1765312e-20)
(-0.041538 0.0015260693 4.8979377e-21)
(-0.039667749 -0.00059921787 2.263824e-20)
(-0.036728347 -0.0027139581 1.0309767e-20)
(-0.032750377 -0.0048041881 2.1857397e-20)
(-0.027766434 -0.0068573275 -1.9773524e-20)
(-0.021820814 -0.0088603779 -2.1676042e-20)
(-0.014960876 -0.010806742 2.1187967e-20)
(-0.0071220203 -0.012681896 2.6814431e-20)
(0.0018831329 -0.014320494 1.5857013e-20)
(-0.0023035866 0.0065607043 -4.3572662e-21)
(-0.0065396384 0.014481166 -5.638996e-21)
(-0.011892824 0.018711721 3.0721339e-22)
(-0.017212016 0.020429375 1.0958257e-21)
(-0.021820185 0.020401406 6.6925172e-21)
(-0.025432093 0.019152545 1.0666237e-20)
(-0.027878159 0.017066901 -3.7231943e-21)
(-0.029053928 0.014424084 -1.8898253e-20)
(-0.028909276 0.011424305 6.5420669e-21)
(-0.027430711 0.0082094822 1.286406e-20)
(-0.024626631 0.004878952 5.8348843e-21)
(-0.02051811 0.0015009894 1.8161203e-20)
(-0.015132893 -0.0018785621 1.7298074e-21)
(-0.0085010247 -0.0052294223 -3.3868725e-20)
(-0.00065104387 -0.0085302884 1.2023345e-21)
(0.0083885428 -0.011762322 -2.2141837e-20)
(0.018566279 -0.014907875 -2.4469931e-20)
(0.02981369 -0.017958131 4.5826503e-20)
(0.042318815 -0.020860124 2.5353357e-20)
(0.056755123 -0.023253389 1.227209e-22)
(-0.0031292256 0.008369542 -5.2838155e-21)
(-0.0078968417 0.018337673 -8.4828097e-21)
(-0.012439575 0.023589197 4.3596433e-21)
(-0.016027136 0.025611036 4.1467529e-21)
(-0.018235482 0.025383945 2.0107388e-21)
(-0.018912796 0.023590228 7.3217979e-21)
(-0.01798437 0.020730801 9.3134633e-21)
(-0.015415685 0.017170466 -1.3512834e-21)
(-0.011205149 0.013170915 -1.148316e-20)
(-0.00537226 0.0089180063 -2.9075064e-20)
(0.0020523691 0.0045419508 6.1956935e-23)
(0.011032267 0.00013223028 4.0702406e-20)
(0.021529709 -0.0042516595 -1.8385128e-20)
(0.033507292 -0.0085709562 -1.2297545e-20)
(0.046932149 -0.012799617 5.5335212e-22)
(0.061774174 -0.016916668 3.2306803e-20)
(0.077969785 -0.020907267 -1.4831861e-20)
(0.095411973 -0.024769807 -5.3346164e-20)
(0.11442137 -0.028387023 4.5771039e-20)
(0.13637199 -0.031081244 3.3017646e-20)
(-0.0039706373 0.0094663341 -6.8785856e-22)
(-0.0090920882 0.02048898 -1.2535779e-20)
(-0.01236487 0.026160471 -3.4147825e-20)
(-0.013552681 0.028144653 -5.7248374e-21)
(-0.012532896 0.027556062 -3.6224765e-21)
(-0.0093156667 0.025188725 6.305725e-21)
(-0.0039436404 0.02162758 -4.6466689e-21)
(0.0035293163 0.017298562 -8.8078621e-21)
(0.013041435 0.012507731 2.1901811e-20)
(0.02452753 0.0074727499 5.0571234e-21)
(0.037923755 0.0023464965 -2.5293091e-20)
(0.05316785 -0.0027659469 1.1079338e-20)
(0.070199725 -0.0077948329 0)
(0.088962159 -0.012696098 1.2090898e-20)
(0.109404 -0.017442595 -9.7027104e-21)
(0.13147924 -0.022016499 -1.4338902e-20)
(0.15509941 -0.026416227 -1.5735443e-21)
(0.18009671 -0.03066804 -2.2186382e-21)
(0.20688654 -0.034586247 4.6152145e-20)
(0.23770124 -0.037030639 -1.0472194e-20)
(-0.00464533 0.0097814244 -7.536219e-21)
(-0.0096775956 0.020748932 2.4518569e-20)
(-0.011064466 0.026162137 -1.0500372e-20)
(-0.0090963343 0.027725442 -2.7471667e-20)
(-0.0039783364 0.026602332 -2.7550379e-20)
(0.0040987475 0.023648544 -1.4922876e-20)
(0.014958184 0.019495986 -6.9066073e-22)
(0.028442028 0.014603547 5.5504341e-21)
(0.044410986 0.0093015372 1.9617527e-20)
(0.062740671 0.0038257014 7.353746e-21)
(0.083317116 -0.0016583217 -7.1868404e-21)
(0.10603469 -0.0070367025 -2.0102766e-21)
(0.13079248 -0.012234502 -3.8195488e-20)
(0.15749183 -0.017206142 -1.2694925e-20)
(0.18603813 -0.021927153 1.875286e-20)
(0.21634189 -0.026388211 -2.1024158e-20)
(0.24826657 -0.030611841 -8.9740706e-21)
(0.28155741 -0.034681413 3.0443468e-20)
(0.31665033 -0.038376884 5.0477387e-20)
(0.35669841 -0.039977402 3.3563967e-21)
(-0.0049619672 0.0093144602 1.6784448e-20)
(-0.0091664254 0.01909848 1.4468942e-20)
(-0.0078589769 0.023564102 5.1149549e-20)
(-0.0018571865 0.024329393 2.3389975e-20)
(0.0082984183 0.022523758 1.8253355e-22)
(0.022226335 0.019013745 -3.9391714e-20)
(0.039603881 0.01443958 -2.4315884e-20)
(0.060156721 0.0092642085 1.0466624e-20)
(0.083650636 0.0038202177 1.4402753e-20)
(0.10988123 -0.0016552233 -1.3114653e-20)
(0.13866349 -0.0069958956 -4.404258e-20)
(0.16982318 -0.01208874 2.9621184e-20)
(0.20318942 -0.016861102 2.002222e-20)
(0.23858896 -0.02127203 -2.7553748e-20)
(0.27584615 -0.025305571 1.1651363e-20)
(0.31478647 -0.02896751 2.4200022e-20)
(0.35518844 -0.032314609 8.0733284e-21)
(0.39668154 -0.035519498 -1.1765716e-20)
(0.43962932 -0.038406811 -1.4191378e-20)
(0.48804221 -0.038649939 5.8745778e-21)
(-0.0047308942 0.0081239874 1.109468e-20)
(-0.0070584388 0.01567155 -2.3354799e-20)
(-0.0020283082 0.018562187 8.6204838e-21)
(0.0090349826 0.018215947 3.3590691e-20)
(0.025260675 0.015650274 5.2128386e-20)
(0.046072917 0.011694007 2.0278082e-20)
(0.070993756 0.0069585457 -5.8644384e-21)
(0.099614201 0.0018796638 -1.228714e-20)
(0.13158456 -0.0032314234 -6.2063261e-21)
(0.16659497 -0.0081548691 3.4243554e-20)
(0.20435752 -0.012739562 -4.5110128e-21)
(0.24459234 -0.0168865 -1.6644815e-20)
(0.28701662 -0.020537109 -1.9695141e-20)
(0.3313365 -0.023665985 -4.7448035e-20)
(0.37724578 -0.026276292 2.3240825e-20)
(0.42443359 -0.028399841 -1.4097381e-20)
(0.47255025 -0.030140851 2.5996244e-20)
(0.52109116 -0.031797702 2.1043042e-20)
(0.5702731 -0.033366545 -8.5577383e-20)
(0.62477227 -0.032076147 -1.0766441e-22)
(-0.0037710341 0.0063147753 2.1926548e-20)
(-0.0028651367 0.010734998 -2.6167653e-20)
(0.0071440585 0.01156361 -4.5016604e-20)
(0.024454093 0.0099238762 -2.7255852e-20)
(0.04787712 0.0066504772 -2.0441378e-21)
(0.076637838 0.0024879799 1.3050919e-20)
(0.11008915 -0.0020189095 -2.833862e-21)
(0.14766813 -0.006492348 1.8119789e-20)
(0.18888102 -0.01066892 8.8691042e-21)
(0.23327628 -0.014368849 -1.1380989e-20)
(0.28042032 -0.017476423 8.8788239e-21)
(0.32987952 -0.019925361 -2.3905166e-20)
(0.38120704 -0.021688372 8.0513583e-21)
(0.43393382 -0.022770706 1.6757913e-20)
(0.48756698 -0.023206329 -2.6397548e-21)
(0.54159922 -0.023060155 1.662022e-21)
(0.59549164 -0.022483975 -3.1948174e-22)
(0.64857773 -0.021885919 1.9592397e-20)
(0.70088544 -0.021462211 4.0437767e-21)
(0.75751706 -0.018517681 -5.7542069e-22)
(-0.0019108006 0.004027291 2.3693863e-20)
(0.003870692 0.0046759183 5.7164398e-20)
(0.020318406 0.0031867239 -4.9247739e-20)
(0.04518385 0.00029245744 -9.9461282e-21)
(0.076973725 -0.0034269276 2.0257677e-20)
(0.11470829 -0.0073572234 2.143515e-21)
(0.15755478 -0.011059494 -2.9817126e-20)
(0.20476851 -0.014249606 6.9851749e-21)
(0.25567423 -0.016744351 7.1104312e-21)
(0.30963418 -0.018434361 -2.6256051e-20)
(0.36602076 -0.019268513 1.2928696e-21)
(0.42419871 -0.019241327 -3.7177129e-20)
(0.48351487 -0.01838275 -3.6344171e-20)
(0.54329402 -0.016749961 6.5689616e-20)
(0.60284067 -0.014420181 5.5633165e-21)
(0.66144511 -0.011490034 -1.519068e-20)
(0.71836727 -0.0081174989 1.9365857e-20)
(0.77276095 -0.0046096891 -9.1897295e-22)
(0.82415208 -0.00098630947 2.0365541e-20)
(0.87628431 0.0043082742 -1.955731e-20)
(-0.018830147 -0.0051008578 5.8361858e-20)
(-0.010216377 -0.0056362066 1.578617e-20)
(-0.00021059185 -0.0060702819 -3.5145497e-20)
(0.010836448 -0.0063356161 1.679344e-20)
(0.022658589 -0.006513652 0)
(0.035197201 -0.0066317912 0)
(0.048392479 -0.006692767 -2.2979452e-20)
(0.062164716 -0.0067044216 -1.650611e-20)
(0.076443509 -0.0066761405 1.9126791e-20)
(0.091169364 -0.0066147128 1.8178022e-20)
(0.10628732 -0.0065253306 1.0525891e-21)
(0.12174558 -0.0064125576 -1.0319826e-20)
(0.13749587 -0.0062803528 8.3291606e-21)
(0.15349298 -0.006132064 1.8237775e-20)
(0.16969417 -0.0059705549 -5.2291453e-21)
(0.18605881 -0.0057983115 -1.0177247e-20)
(0.20254816 -0.0056175053 -4.320575e-21)
(0.21912523 -0.0054300461 -4.4265328e-21)
(0.23575461 -0.0052376266 7.3675687e-22)
(0.25240247 -0.0050417577 1.2289788e-21)
(0.26903651 -0.0048437953 2.5677121e-21)
(0.28562598 -0.0046449597 6.6560505e-21)
(0.30214174 -0.004446351 2.4850385e-22)
(0.31855631 -0.0042489594 -3.4527745e-21)
(0.33484389 -0.0040536733 1.555204e-22)
(0.35098049 -0.0038612851 -5.7735149e-22)
(0.36694392 -0.0036724958 1.2440345e-21)
(0.38271386 -0.0034879187 1.0525463e-21)
(0.39827189 -0.0033080833 -1.3000645e-21)
(0.4136015 -0.0031334389 -1.2213233e-22)
(0.42868807 -0.0029643585 3.5034508e-23)
(0.44351891 -0.0028011436 -3.5219313e-22)
(0.45808317 -0.0026440285 -4.0644792e-22)
(0.47237185 -0.002493186 5.5951625e-23)
(0.48637774 -0.002348733 -1.3829997e-22)
(0.50009539 -0.0022107368 -2.2373935e-22)
(0.51352105 -0.0020792215 2.561721e-22)
(0.52665268 -0.0019541752 2.9564964e-22)
(0.53948983 -0.0018355587 -8.6932225e-24)
(0.55203402 -0.0017233097 -1.5626372e-22)
(0.56428766 -0.0016173712 3.0402075e-23)
(0.57625794 -0.0015176462 -4.0274718e-23)
(0.58794545 -0.0014242138 9.3109642e-23)
(0.59938052 -0.0013367374 2.1784279e-23)
(0.61051675 -0.0012565291 -1.1647298e-22)
(0.62155172 -0.00118034 -6.9702881e-24)
(0.63199668 -0.001120554 3.9528313e-26)
(0.64339718 -0.0010439246 -3.9001033e-24)
(0.65153701 -0.0010620273 2.9356433e-23)
(0.66834885 -0.00088831394 3.6359276e-22)
(0.010456671 -0.015021129 -1.2749264e-20)
(0.018192552 -0.016644894 -6.331266e-20)
(0.027794483 -0.017919654 -3.0547607e-20)
(0.038403124 -0.018676617 3.8483043e-20)
(0.049641931 -0.01918842 1.4665387e-20)
(0.061530815 -0.019534546 -1.8208823e-20)
(0.074040545 -0.01971525 4.6736403e-21)
(0.08709424 -0.019752136 2.5452205e-20)
(0.10062888 -0.019673173 9.1517249e-23)
(0.11459424 -0.019497832 -7.6609894e-21)
(0.12894224 -0.019240721 -1.3023064e-20)
(0.14362627 -0.018914895 -8.526908e-21)
(0.15860248 -0.01853177 1.7776277e-20)
(0.17382935 -0.018101007 8.9332074e-21)
(0.18926716 -0.017630889 -1.6525427e-20)
(0.20487773 -0.017128642 -6.0404809e-21)
(0.22062437 -0.016600606 3.2150235e-21)
(0.23647171 -0.016052378 8.3732592e-21)
(0.25238574 -0.01548894 6.9852989e-21)
(0.26833372 -0.014914754 -6.9756135e-21)
(0.28428427 -0.014333837 -3.1707289e-21)
(0.30020741 -0.013749816 1.3621308e-21)
(0.31607459 -0.013165968 3.8844723e-22)
(0.33185881 -0.012585252 1.2122394e-21)
(0.34753467 -0.012010326 1.841269e-22)
(0.36307845 -0.011443565 -3.2714626e-22)
(0.37846815 -0.010887077 -7.2508234e-22)
(0.39368358 -0.010342708 9.731766e-22)
(0.40870633 -0.0098120545 8.2603603e-22)
(0.42351988 -0.0092964768 -1.5271178e-22)
(0.43810952 -0.0087971068 5.54211e-22)
(0.4524624 -0.0083148629 -2.3902406e-22)
(0.46656746 -0.0078504638 -3.7182564e-22)
(0.48041544 -0.0074044444 -6.1141957e-22)
(0.49399885 -0.0069771727 4.4238643e-22)
(0.50731187 -0.0065688679 -1.6792353e-23)
(0.52035039 -0.0061796209 1.6264653e-22)
(0.53311195 -0.0058094135 -4.43956e-22)
(0.54559567 -0.005458147 3.7492822e-22)
(0.55780263 -0.0051256519 6.7480008e-23)
(0.56973474 -0.0048117751 -1.0292081e-22)
(0.5813987 -0.004516243 1.7838431e-22)
(0.59279468 -0.004239308 2.3695826e-22)
(0.60395222 -0.0039799791 1.7246573e-22)
(0.61482513 -0.0037421884 1.7168923e-22)
(0.62560809 -0.0035162601 -2.6859862e-23)
(0.63581882 -0.0033391068 8.801564e-23)
(0.64697968 -0.0031117598 8.0282545e-23)
(0.65494 -0.0031659887 -2.0035743e-22)
(0.6714321 -0.0026506345 -3.7343936e-23)
(0.067633748 -0.024035162 9.454523e-21)
(0.073610858 -0.026755627 3.296036e-21)
(0.082289243 -0.028812711 -1.2165365e-20)
(0.091974409 -0.029976124 -1.2264623e-21)
(0.10201286 -0.030775934 1.4973847e-20)
(0.1125793 -0.031339406 -1.4889996e-20)
(0.12371251 -0.031645017 -2.9848722e-20)
(0.13533724 -0.031722365 1.4497031e-20)
(0.14740155 -0.031617393 1.8186344e-20)
(0.15987249 -0.031360197 -1.1601367e-20)
(0.17271447 -0.030972332 1.0192825e-21)
(0.18588984 -0.030473625 8.6869504e-21)
(0.19936237 -0.029881772 -1.5257774e-20)
(0.21309698 -0.029211799 2.9125042e-21)
(0.22705912 -0.028476654 7.5219595e-21)
(0.24121479 -0.027687728 2.9851867e-23)
(0.25553067 -0.026855109 2.6446855e-22)
(0.26997418 -0.025987775 -7.4180599e-21)
(0.28451353 -0.025093775 3.8651813e-21)
(0.29911783 -0.024180369 8.4786824e-21)
(0.31375717 -0.023254132 -3.8369472e-21)
(0.32840276 -0.022321035 -2.2137806e-21)
(0.343027 -0.021386497 1.0122377e-21)
(0.35760364 -0.020455429 -1.7168002e-21)
(0.37210786 -0.019532263 1.3537697e-21)
(0.38651631 -0.018620972 7.1877673e-22)
(0.40080727 -0.017725091 1.5300095e-21)
(0.41496066 -0.016847731 -1.9561068e-21)
(0.42895809 -0.015991592 2.2278412e-21)
(0.44278289 -0.015158982 5.5287728e-22)
(0.45642013 -0.014351837 4.0581573e-22)
(0.46985663 -0.013571737 3.2163168e-22)
(0.48308092 -0.012819934 8.7642054e-22)
(0.49608323 -0.012097373 -1.3759709e-21)
(0.50885546 -0.011404724 3.7236777e-22)
(0.52139117 -0.010742409 1.1122303e-22)
(0.53368552 -0.010110639 -4.5812381e-23)
(0.54573528 -0.0095094401 8.6035171e-23)
(0.55753875 -0.0089387059 -3.7415016e-22)
(0.56909616 -0.0083982109 1.8467754e-22)
(0.58040856 -0.0078877555 -3.516489e-23)
(0.59148168 -0.0074069385 3.96007e-22)
(0.60231488 -0.0069562282 -1.8855763e-22)
(0.61293632 -0.006534034 4.789528e-23)
(0.62330014 -0.0061468888 4.4740004e-23)
(0.63359556 -0.0057789035 -7.5644507e-23)
(0.64335259 -0.0054907943 -1.2617835e-22)
(0.65404925 -0.0051202057 4.0188545e-22)
(0.66166124 -0.0052102043 1.778357e-22)
(0.6775336 -0.0043704781 -8.3745438e-22)
(0.15024502 -0.031469103 1.5015319e-21)
(0.15357885 -0.035266769 -1.1567946e-20)
(0.16065086 -0.038021016 6.6447669e-21)
(0.16884354 -0.03948981 -1.3327067e-20)
(0.17702304 -0.040531982 -1.9761922e-21)
(0.18556763 -0.041314154 9.1622569e-21)
(0.19463199 -0.041769678 -9.7693346e-21)
(0.2041386 -0.041926697 1.5656678e-21)
(0.21404352 -0.041846846 1.2906496e-20)
(0.22433627 -0.041568363 3.4045988e-21)
(0.23499757 -0.04111657 -6.2110636e-21)
(0.24600031 -0.040515458 -2.865175e-21)
(0.25731709 -0.039787229 -5.8411872e-21)
(0.26892039 -0.038950999 -6.4575427e-21)
(0.28078165 -0.038023374 3.2350011e-21)
(0.29287159 -0.037019153 8.445588e-22)
(0.30516067 -0.035951627 1.369032e-21)
(0.31761934 -0.034832777 -3.3859814e-21)
(0.33021821 -0.033673464 -4.2455933e-21)
(0.3429283 -0.032483581 2.3631625e-21)
(0.35572122 -0.031272168 3.2277383e-21)
(0.36856935 -0.030047493 -1.5656921e-21)
(0.38144603 -0.028817109 1.5880146e-21)
(0.39432568 -0.0275879 -3.921632e-22)
(0.40718393 -0.026366108 -3.9244225e-21)
(0.41999775 -0.025157356 -3.0354933e-21)
(0.43274553 -0.023966668 -1.9117867e-22)
(0.44540718 -0.022798484 4.2802246e-22)
(0.45796413 -0.021656682 -2.2127372e-21)
(0.47039941 -0.020544596 -8.5791116e-22)
(0.48269769 -0.019465041 2.2855018e-22)
(0.49484522 -0.018420342 -1.2532998e-21)
(0.50682988 -0.017412363 5.4872307e-24)
(0.51864117 -0.016442545 -4.2611709e-22)
(0.53027015 -0.01551194 -4.726558e-22)
(0.54170944 -0.014621259 -5.2374639e-22)
(0.5529532 -0.013770911 -8.4724089e-22)
(0.56399716 -0.012961052 -5.4089566e-23)
(0.5748385 -0.012191648 -3.9287024e-24)
(0.58547627 -0.011462495 -5.2430746e-22)
(0.59591034 -0.010773426 -9.1113244e-23)
(0.60614516 -0.010123987 -3.3675633e-22)
(0.61617897 -0.009514926 -4.4512472e-22)
(0.62603804 -0.0089441411 3.8527846e-22)
(0.63567706 -0.0084207194 1.5101564e-23)
(0.64527747 -0.0079229318 1.8718158e-22)
(0.654387 -0.0075340397 -1.3823114e-22)
(0.66441995 -0.0070322876 -2.759722e-22)
(0.67153405 -0.0071572716 -3.9633221e-23)
(0.68651756 -0.0060211343 4.6662581e-22)
(0.2547269 -0.03656419 -2.0903945e-20)
(0.25451375 -0.041405717 4.7592804e-20)
(0.25911961 -0.044758683 1.0349479e-20)
(0.2651335 -0.046455785 -1.5767989e-20)
(0.27076192 -0.047728741 -2.0237018e-21)
(0.27657593 -0.04876289 2.6230911e-21)
(0.28289509 -0.049429511 -1.661769e-21)
(0.28964036 -0.04974455 -4.6870491e-21)
(0.29676414 -0.049778521 -4.0167382e-21)
(0.30427741 -0.049574767 -1.2210236e-20)
(0.31217878 -0.049160012 1.7902819e-20)
(0.32045093 -0.048559723 6.5242903e-21)
(0.32907382 -0.047798471 -1.6784438e-20)
(0.33802647 -0.046898101 1.0318469e-20)
(0.3472855 -0.045877952 8.3853501e-21)
(0.35682553 -0.044755532 -8.7770917e-22)
(0.36662001 -0.043546855 -3.1218056e-21)
(0.37664167 -0.04226661 -3.8225805e-21)
(0.38686287 -0.040928306 -1.3905676e-21)
(0.39725595 -0.039544399 -1.2316643e-21)
(0.40779347 -0.038126388 -3.0285739e-21)
(0.41844849 -0.036684882 0)
(0.42919478 -0.035229647 -1.3466643e-21)
(0.44000702 -0.033769634 3.9333061e-21)
(0.45086091 -0.032313006 5.4102755e-21)
(0.46173337 -0.030867154 -9.4150041e-22)
(0.47260256 -0.029438711 -2.9324107e-21)
(0.48344803 -0.028033574 3.0319839e-21)
(0.49425079 -0.02665692 2.5283515e-22)
(0.50499327 -0.025313232 3.4422668e-21)
(0.51565944 -0.024006325 -5.349979e-22)
(0.52623479 -0.022739388 1.7207773e-21)
(0.5367063 -0.021515015 -8.022525e-22)
(0.54706248 -0.020335255 2.930197e-22)
(0.55729334 -0.01920166 -4.3641349e-22)
(0.56739037 -0.018115334 5.6417447e-22)
(0.57734651 -0.017076999 4.5974446e-22)
(0.58715623 -0.016087041 3.8507929e-22)
(0.59681539 -0.015145603 -9.6623305e-22)
(0.60632168 -0.014252606 6.8920733e-22)
(0.61567356 -0.013408006 -3.7292049e-22)
(0.62487399 -0.012611396 -1.1167216e-21)
(0.63391996 -0.011863875 1.4276197e-21)
(0.64283546 -0.011162948 -6.2790685e-23)
(0.65157597 -0.010520178 -1.613594e-22)
(0.66031329 -0.0099084988 -8.027087e-24)
(0.66861763 -0.0094320013 -1.3166147e-22)
(0.6778228 -0.0088149133 -4.8006099e-22)
(0.68431677 -0.0089736844 8.7556381e-22)
(0.69818602 -0.007577931 -4.4843464e-23)
(0.37640333 -0.038382305 -1.7498196e-20)
(0.37176415 -0.044285184 1.2833593e-20)
(0.37292399 -0.048177428 2.9766995e-21)
(0.37597063 -0.050115455 -7.6366379e-21)
(0.37836865 -0.051687348 1.2058039e-20)
(0.38078967 -0.053060527 7.7928227e-21)
(0.3837463 -0.054048964 -1.2649425e-20)
(0.38717466 -0.054652782 -6.0691462e-21)
(0.39100733 -0.054938422 1.2699874e-20)
(0.3952648 -0.054948277 -1.5309579e-20)
(0.39996115 -0.054709371 -1.4066161e-20)
(0.40508679 -0.054247209 1.4134605e-20)
(0.41062547 -0.053586906 6.8210205e-21)
(0.41655948 -0.052751878 -4.2073614e-21)
(0.42286825 -0.051763625 -1.8533575e-21)
(0.42952832 -0.050642037 -4.0575145e-21)
(0.43651433 -0.049405672 5.3042686e-21)
(0.44379981 -0.048071889 3.6692201e-21)
(0.45135756 -0.046656916 -3.2412746e-21)
(0.45916005 -0.045175909 3.1388651e-21)
(0.46717982 -0.043643005 2.7685613e-21)
(0.47538971 -0.042071359 -3.213224e-21)
(0.48376317 -0.040473161 3.7070725e-22)
(0.4922744 -0.038859653 -3.2583418e-21)
(0.50089858 -0.037241136 7.2552386e-21)
(0.50961198 -0.035626979 6.114737e-21)
(0.51839208 -0.034025632 8.1203861e-22)
(0.52721763 -0.032444641 -1.7703096e-21)
(0.53606878 -0.030890669 3.7104358e-21)
(0.54492705 -0.029369521 7.2040944e-21)
(0.55377541 -0.027886185 2.3086577e-21)
(0.56259828 -0.026444868 3.3252293e-21)
(0.57138154 -0.025049048 2.0005048e-21)
(0.5801125 -0.023701528 7.4827393e-22)
(0.58877993 -0.022404493 -2.6412316e-22)
(0.59737402 -0.021159578 2.7322917e-21)
(0.60588638 -0.019967939 6.2289249e-22)
(0.61431009 -0.01883032 2.9632314e-22)
(0.62263959 -0.017747154 5.6498702e-23)
(0.63087109 -0.016718598 9.982034e-22)
(0.63900161 -0.015744842 4.7274765e-23)
(0.64703249 -0.014825624 4.4787744e-22)
(0.65495946 -0.013962481 -1.2755101e-22)
(0.66280398 -0.013152644 -2.8212137e-22)
(0.6705227 -0.012410055 -1.5506795e-22)
(0.67827623 -0.011702901 -4.3169305e-22)
(0.68566132 -0.011154031 1.6762323e-22)
(0.69391761 -0.010440089 -1.3066997e-22)
(0.69970263 -0.01063109 -4.9904696e-22)
(0.71228543 -0.0090188823 2.4884706e-22)
(0.509335 -0.035990874 3.6468932e-21)
(0.49959344 -0.042978113 -1.896027e-20)
(0.49634119 -0.047401785 -2.3088731e-21)
(0.49562451 -0.049755933 5.487682e-21)
(0.49424124 -0.051838051 3.0537253e-21)
(0.4927707 -0.05372628 -4.9030443e-23)
(0.4918907 -0.055209374 6.1917952e-21)
(0.49159657 -0.056287968 7.6268149e-21)
(0.49179762 -0.057013935 9.8596526e-21)
(0.4925008 -0.057419797 -1.1252656e-20)
(0.49372551 -0.057531334 -2.1585231e-20)
(0.4954669 -0.05737425 -3.937264e-21)
(0.49770876 -0.056973756 1.5942845e-20)
(0.50043238 -0.056354421 1.2812764e-20)
(0.50361663 -0.05553993 -5.9072944e-21)
(0.50723747 -0.05455283 1.3804291e-21)
(0.5112687 -0.053414561 -3.662744e-21)
(0.51568284 -0.052145522 2.2481371e-21)
(0.5204516 -0.050765054 -2.9131681e-22)
(0.52554637 -0.049291422 -1.866417e-21)
(0.53093851 -0.0477418 7.8323551e-21)
(0.5365997 -0.046132272 -2.941997e-22)
(0.54250218 -0.044477824 4.1935565e-22)
(0.54861896 -0.042792329 -6.5562956e-22)
(0.55492398 -0.041088549 -4.306507e-21)
(0.56139229 -0.039378134 4.2123272e-21)
(0.56800012 -0.037671626 1.9039786e-21)
(0.57472499 -0.035978478 -3.311779e-21)
(0.58154576 -0.034307075 -4.1149974e-21)