/*--------------------------------*- C++ -*----------------------------------*\
  =========                 |
  \\      /  F ield         | OpenFOAM: The Open Source CFD Toolbox
   \\    /   O peration     | Website:  https://openfoam.org
    \\  /    A nd           | Version:  6
     \\/     M anipulation  |
\*---------------------------------------------------------------------------*/
FoamFile
{
    version     2.0;
    format      ascii;
    class       volVectorField;
    location    "103";
    object      U_0;
}
// * * * * * * * * * * * * * * * * * * * * * * * * * * * * * * * * * * * * * //

dimensions      [0 1 -1 0 0 0 0];

internalField   nonuniform List<vector> 
9200
(
(0.0010398261 0.0014197283 -5.9205576e-20)
(0.013678156 -0.0020594729 4.6045885e-20)
(0.0383177 -0.0058685072 -3.8504387e-20)
(0.072282084 -0.0097662882 -6.0261736e-20)
(0.11377605 -0.013493678 1.8828397e-20)
(0.16159633 -0.016610184 3.2746193e-20)
(0.21469142 -0.018822692 -1.2269014e-20)
(0.2720908 -0.019980184 9.2696431e-21)
(0.3328859 -0.020018415 1.6804491e-20)
(0.39619815 -0.018937161 1.4849145e-21)
(0.46115516 -0.016788873 -2.1458029e-20)
(0.52688118 -0.013667781 2.0671702e-20)
(0.59249935 -0.0096990991 -4.0425272e-20)
(0.65714385 -0.0050280018 -2.1135832e-20)
(0.71998053 0.00019212502 5.9051607e-21)
(0.78023339 0.0058093498 -2.5134282e-20)
(0.83723075 0.011696651 2.5220045e-20)
(0.89052985 0.017900812 2.2247104e-20)
(0.93973189 0.024554061 -2.9854319e-22)
(0.98211247 0.028272501 -1.668226e-21)
(0.005252997 -0.0013467136 -1.7060425e-20)
(0.026965599 -0.0089905938 3.9750415e-20)
(0.061676347 -0.014812315 2.3577906e-20)
(0.10630492 -0.019175729 -1.1570471e-19)
(0.15875 -0.022218327 -1.2727991e-20)
(0.21755259 -0.023725851 7.3301496e-20)
(0.28139704 -0.023601071 -3.5478735e-20)
(0.34903525 -0.021875735 -8.3910999e-21)
(0.41927359 -0.018653095 3.4289949e-20)
(0.49094882 -0.014089238 -4.3262841e-20)
(0.56291638 -0.0083852207 -3.0341061e-20)
(0.63405674 -0.0017768059 7.1928208e-20)
(0.70329516 0.0054771524 3.8297595e-20)
(0.76963054 0.013106254 -6.7983701e-20)
(0.83216922 0.02083845 1.4625472e-20)
(0.89015831 0.028404696 -3.6737808e-20)
(0.94302739 0.035553168 -1.3778491e-20)
(0.99048995 0.04212277 7.0985205e-20)
(1.0324123 0.047695517 2.9648326e-20)
(1.0669891 0.049118415 -8.3485068e-20)
(0.01085965 -0.0040430176 3.6775571e-20)
(0.043957694 -0.015433019 2.5048718e-21)
(0.090523595 -0.022555293 2.234327e-20)
(0.14712405 -0.026501276 9.8122484e-22)
(0.21136014 -0.027891025 -4.0776828e-20)
(0.2814905 -0.02680058 1.8577385e-20)
(0.35589859 -0.023388883 1.3421247e-20)
(0.43302358 -0.017928366 -5.0331097e-20)
(0.51136336 -0.01074317 5.7266014e-20)
(0.58946941 -0.0021921413 1.4258062e-20)
(0.66595653 0.0073388205 -5.4305715e-20)
(0.73953111 0.017450244 -1.8239513e-20)
(0.80902927 0.027745476 9.0588778e-21)
(0.87345757 0.037846974 2.344749e-20)
(0.93202927 0.047410387 -1.1364155e-20)
(0.98418913 0.05613382 2.7881151e-20)
(1.0296284 0.063772405 -2.0190508e-20)
(1.0683172 0.070185913 -7.0133364e-20)
(1.1003826 0.075099155 -2.3800088e-20)
(1.124959 0.076619443 4.8664444e-20)
(0.017958912 -0.0064228877 2.4509323e-20)
(0.06478261 -0.020696993 5.1042142e-20)
(0.12486255 -0.028064112 1.9882786e-20)
(0.19448509 -0.030468163 1.299062e-20)
(0.27097023 -0.029099629 1.7276575e-20)
(0.35227531 -0.02439436 -4.7723009e-20)
(0.43646343 -0.016831899 -2.5648517e-20)
(0.52165736 -0.0069831454 0)
(0.60607098 0.0045599562 1.3922423e-20)
(0.68803317 0.017203957 -5.8535368e-21)
(0.76602454 0.030365314 -9.7943811e-20)
(0.83872616 0.04349003 -1.5775796e-20)
(0.90506831 0.056075844 6.5110861e-20)
(0.96426914 0.067692018 4.8353652e-22)
(1.0158564 0.077994095 -1.5727494e-21)
(1.0596671 0.086731538 2.1960259e-20)
(1.0958269 0.093755247 -5.2656066e-21)
(1.1247272 0.099046575 -6.1037532e-20)
(1.1469092 0.10257655 -4.5857733e-20)
(1.1623373 0.10339169 6.952755e-20)
(0.02658165 -0.0082064821 -3.9195581e-21)
(0.089351083 -0.024035794 -5.1258736e-21)
(0.16432002 -0.030268262 5.6602358e-20)
(0.24759946 -0.029813978 1.8540234e-20)
(0.33626577 -0.024517504 -3.195684e-20)
(0.42798121 -0.01524476 1.2164524e-20)
(0.52050804 -0.0028566642 2.6404672e-21)
(0.6117039 0.011731344 3.3611949e-20)
(0.6995916 0.027633831 5.6604353e-21)
(0.78241611 0.044021738 -1.3206417e-20)
(0.85870404 0.060139778 6.0161181e-20)
(0.9273203 0.075331402 -5.8014694e-20)
(0.98750817 0.089062465 -1.3218068e-19)
(1.0389038 0.10093712 -5.5779509e-21)
(1.0815217 0.11070353 8.3161008e-20)
(1.1157127 0.11824875 0)
(1.1420995 0.12358875 1.0120057e-20)
(1.1615089 0.1268717 -1.5461707e-20)
(1.1748571 0.12827814 -8.6006068e-21)
(1.1827038 0.12742701 2.0994503e-20)
(0.036669713 -0.0090903772 -5.4309597e-21)
(0.11732368 -0.024687554 4.3580866e-21)
(0.2081334 -0.028143183 -8.7634091e-21)
(0.30517802 -0.023418435 2.8473825e-20)
(0.40536255 -0.013079385 -2.9394402e-20)
(0.50610443 0.0015185693 -1.6928114e-20)
(0.60494304 0.019090809 3.7366144e-20)
(0.69959209 0.038360519 4.7596562e-21)
(0.7880498 0.058162322 -2.4439035e-20)
(0.86868223 0.077476864 6.9874066e-20)
(0.94028911 0.095451439 5.2314468e-22)
(1.0021451 0.11142306 -8.0453567e-20)
(1.0540057 0.1249329 0)
(1.0960746 0.13572583 3.9547089e-20)
(1.1289374 0.143735 5.5243408e-21)
(1.1534706 0.14905371 -7.7575488e-20)
(1.1707392 0.15190215 -1.9589192e-20)
(1.1818998 0.15260501 -1.2469081e-20)
(1.1880941 0.15150581 -1.4711164e-20)
(1.1901786 0.14856323 4.0425125e-20)
(0.048062268 -0.0087681292 -1.7278568e-20)
(0.14809319 -0.021933895 -2.2203545e-21)
(0.25515757 -0.020800283 3.038176e-20)
(0.36548736 -0.010415462 3.7485814e-20)
(0.47593398 0.0058988203 -1.9945807e-20)
(0.58377803 0.026266434 -6.9167732e-20)
(0.68648193 0.048974115 -2.7998243e-20)
(0.78180576 0.072414267 7.8935592e-20)
(0.86794819 0.095208266 8.57917e-21)
(0.94363673 0.11624442 -2.487543e-20)
(1.0081736 0.13469183 1.3642849e-20)
(1.0614341 0.15000761 -4.3201816e-21)
(1.1038149 0.16192699 0)
(1.1361411 0.1704329 2.7206387e-20)
(1.1595458 0.17570991 -7.9331015e-20)
(1.1753408 0.17808875 -3.1478957e-20)
(1.1848932 0.17799152 8.1063435e-20)
(1.1895259 0.17589129 -4.29766e-21)
(1.1904346 0.17223603 3.5564338e-21)
(1.1885376 0.16717216 2.7114851e-20)
(0.060489242 -0.0069579315 -3.241571e-20)
(0.18078925 -0.01517178 -8.1628073e-20)
(0.30390813 -0.0075851404 2.5792921e-21)
(0.42645126 0.0097018024 7.0165668e-20)
(0.54538336 0.032630101 6.2428087e-20)
(0.65801809 0.058818586 -7.1578542e-20)
(0.76195001 0.086174827 -2.8207963e-22)
(0.85522696 0.11285011 8.553031e-20)
(0.93649914 0.13737531 4.8832307e-20)
(1.0050876 0.15868946 -5.4223785e-20)
(1.0609812 0.17612993 -9.2343267e-20)
(1.1047685 0.18940618 -3.1592971e-21)
(1.1375182 0.19855029 4.2132097e-20)
(1.1606274 0.2038476 -6.6063249e-21)
(1.1756624 0.20575745 -1.2870048e-20)
(1.184213 0.20483478 1.9692635e-20)
(1.1877758 0.20166302 4.3885126e-20)
(1.1876763 0.19680856 -4.3863793e-20)
(1.1850245 0.1907603 -1.0233292e-19)
(1.1806524 0.18375417 2.4569934e-20)
(0.073541765 -0.0034333007 -3.4981448e-20)
(0.2142397 -0.0039897242 -1.7389208e-19)
(0.35253709 0.011838847 8.2108075e-20)
(0.48565542 0.037018151 9.2772788e-20)
(0.61088715 0.066835632 5.7973902e-20)
(0.72580534 0.098481296 8.6113495e-21)
(0.82838951 0.12959678 -1.0624783e-19)
(0.91723353 0.15824183 0)
(0.99167181 0.18302622 -6.8755404e-20)
(1.0517962 0.20310875 -1.5204065e-20)
(1.0983813 0.21814364 5.4708614e-20)
(1.132742 0.22820407 1.0974472e-20)
(1.1565501 0.233684 -4.5618181e-20)
(1.1716436 0.23518906 -4.9085929e-20)
(1.179855 0.23343125 2.429015e-20)
(1.1828775 0.22913959 4.482746e-20)
(1.1821794 0.22299484 -5.5606003e-20)
(1.1789648 0.21559199 -1.0752181e-19)
(1.174174 0.20740496 -3.1513382e-21)
(1.1684825 0.19870059 2.7049058e-20)
(0.086655489 0.0019613781 -3.5454519e-21)
(0.2469741 0.011816811 8.791721e-20)
(0.39886923 0.037493071 -1.6477631e-20)
(0.5404333 0.071219751 -8.4315011e-20)
(0.66953322 0.10779068 4.5167406e-20)
(0.78425786 0.1441172 4.9178044e-20)
(0.88323044 0.17775802 5.5361321e-21)
(0.96582109 0.20688536 -9.951057e-20)
(1.0322188 0.2303872 -2.5050988e-21)
(1.0833745 0.24781311 5.0508193e-20)
(1.1208472 0.25925879 5.9860338e-21)
(1.1465941 0.26523011 -1.971906e-20)
(1.1627469 0.26649739 -7.5711486e-20)
(1.1714106 0.26395654 -6.25583e-21)
(1.1745083 0.25851304 4.3537213e-20)
(1.173685 0.25099822 3.7025274e-20)
(1.1702668 0.24212006 1.9794944e-20)
(1.1652672 0.2324438 -5.3000591e-20)
(1.1594271 0.2223883 1.2957637e-20)
(1.1532496 0.2122213 8.2666476e-20)
(-0.0012933599 0.0014347685 -1.1234668e-21)
(-0.0047463098 0.0031876412 2.0648217e-21)
(-0.010772118 0.0041361817 8.7973684e-22)
(-0.017755493 0.0045398225 -2.4410148e-21)
(-0.024741938 0.0045656837 -1.4117885e-21)
(-0.031301565 0.0043262668 1.5463267e-21)
(-0.037163569 0.0039037139 -6.8709696e-21)
(-0.04214986 0.0033578354 -5.9580938e-21)
(-0.046160267 0.0027314256 1.11734e-20)
(-0.049148647 0.0020547998 -9.7439781e-21)
(-0.051102966 0.0013491896 -1.9834351e-22)
(-0.052032497 0.00062922623 3.6678455e-21)
(-0.051959414 -9.5174942e-05 -6.3302581e-22)
(-0.05091306 -0.00081731088 2.2821876e-20)
(-0.048926333 -0.0015323259 3.040167e-22)
(-0.046035142 -0.002235762 -4.088884e-20)
(-0.042280707 -0.0029229691 7.5397664e-21)
(-0.037701321 -0.0035918592 2.3867752e-20)
(-0.032305389 -0.0042409336 -4.3859302e-20)
(-0.026152319 -0.0048221872 -2.7743703e-20)
(-0.0016523205 0.0041811775 -5.3720978e-21)
(-0.0053978575 0.009268784 1.0866042e-20)
(-0.011219252 0.012008233 -1.0192378e-20)
(-0.017659141 0.013154574 3.9236257e-21)
(-0.023857865 0.013196162 4.8129114e-21)
(-0.029434984 0.012463354 7.1334088e-22)
(-0.034154122 0.011197485 -2.2512395e-20)
(-0.037862203 0.0095741809 -2.0372574e-21)
(-0.040476027 0.0077190627 2.0165989e-20)
(-0.041960428 0.0057210801 -5.0479799e-21)
(-0.042310104 0.0036424734 -2.1765331e-20)
(-0.041538002 0.0015260664 4.8979422e-21)
(-0.03966775 -0.00059922175 2.2638266e-20)
(-0.036728345 -0.002713963 1.0309776e-20)
(-0.032750372 -0.0048041941 2.1857411e-20)
(-0.027766424 -0.0068573346 -1.977354e-20)
(-0.0218208 -0.0088603862 -2.1676061e-20)
(-0.014960857 -0.010806751 2.1187982e-20)
(-0.0071219953 -0.012681907 2.6814454e-20)
(0.0018831645 -0.014320506 1.5857029e-20)
(-0.002303587 0.0065607053 -4.3572634e-21)
(-0.0065396397 0.014481169 -5.638995e-21)
(-0.011892826 0.018711725 3.0721273e-22)
(-0.017212019 0.020429379 1.0958134e-21)
(-0.021820189 0.020401409 6.6925131e-21)
(-0.025432097 0.019152548 1.0666228e-20)
(-0.027878162 0.017066902 -3.7232008e-21)
(-0.029053931 0.014424084 -1.8898251e-20)
(-0.028909277 0.011424304 6.5420706e-21)
(-0.02743071 0.0082094799 1.2864074e-20)
(-0.024626627 0.0048789483 5.8348769e-21)
(-0.020518103 0.0015009842 1.8161227e-20)
(-0.015132882 -0.0018785689 1.7298087e-21)
(-0.0085010091 -0.0052294308 -3.3868757e-20)
(-0.0006510229 -0.0085302987 1.202331e-21)
(0.0083885698 -0.011762334 -2.214186e-20)
(0.018566313 -0.014907889 -2.4469945e-20)
(0.029813732 -0.017958147 4.5826533e-20)
(0.042318865 -0.020860143 2.5353374e-20)
(0.056755182 -0.02325341 1.227194e-22)
(-0.0031292261 0.0083695433 -5.2838133e-21)
(-0.0078968431 0.018337676 -8.4828058e-21)
(-0.012439577 0.023589201 4.3596393e-21)
(-0.016027139 0.02561104 4.1467519e-21)
(-0.018235483 0.025383949 2.0107358e-21)
(-0.018912797 0.02359023 7.3218099e-21)
(-0.017984369 0.020730802 9.3134762e-21)
(-0.015415681 0.017170465 -1.3512909e-21)
(-0.011205142 0.013170913 -1.1483176e-20)
(-0.0053722493 0.0089180021 -2.9075084e-20)
(0.0020523845 0.0045419447 6.1951308e-23)
(0.011032288 0.00013222199 4.0702437e-20)
(0.021529736 -0.00425167 -1.8385148e-20)
(0.033507326 -0.0085709691 -1.2297553e-20)
(0.046932191 -0.012799633 5.5335786e-22)
(0.061774225 -0.016916686 3.2306823e-20)
(0.077969845 -0.020907288 -1.4831865e-20)
(0.095412044 -0.024769831 -5.3346199e-20)
(0.11442146 -0.02838705 4.5771071e-20)
(0.13637209 -0.031081275 3.3017679e-20)
(-0.0039706379 0.0094663355 -6.8785769e-22)
(-0.0090920895 0.020488983 -1.2535774e-20)
(-0.012364871 0.026160475 -3.4147823e-20)
(-0.013552681 0.028144656 -5.7248473e-21)
(-0.012532894 0.027556065 -3.6224628e-21)
(-0.0093156627 0.025188726 6.3057329e-21)
(-0.0039436331 0.02162758 -4.6466849e-21)
(0.0035293279 0.01729856 -8.8078878e-21)
(0.013041452 0.012507727 2.1901836e-20)
(0.024527553 0.007472743 5.0571378e-21)
(0.037923785 0.0023464871 -2.5293091e-20)
(0.053167888 -0.0027659591 1.1079351e-20)
(0.070199771 -0.0077948479 0)
(0.088962215 -0.012696116 1.2090906e-20)
(0.10940407 -0.017442616 -9.7027161e-21)
(0.13147931 -0.022016523 -1.4338908e-20)
(0.1550995 -0.026416255 -1.5735519e-21)
(0.18009681 -0.030668071 -2.2186376e-21)
(0.20688666 -0.034586283 4.6152175e-20)
(0.23770138 -0.037030679 -1.0472204e-20)
(-0.0046453305 0.0097814256 -7.5362164e-21)
(-0.0096775965 0.020748935 2.4518566e-20)
(-0.011064466 0.02616214 -1.0500376e-20)
(-0.0090963323 0.027725445 -2.747167e-20)
(-0.0039783312 0.026602334 -2.7550367e-20)
(0.0040987569 0.023648544 -1.4922882e-20)
(0.014958199 0.019495984 -6.9066976e-22)
(0.028442049 0.014603542 5.5504472e-21)
(0.044411015 0.0093015296 1.9617552e-20)
(0.062740708 0.003825691 7.3537516e-21)
(0.083317163 -0.0016583352 -7.1868475e-21)
(0.10603475 -0.0070367192 -2.0102828e-21)
(0.13079255 -0.012234523 -3.819551e-20)
(0.15749191 -0.017206166 -1.2694932e-20)
(0.18603822 -0.02192718 1.8752865e-20)
(0.216342 -0.026388242 -2.1024166e-20)
(0.24826669 -0.030611876 -8.9740745e-21)
(0.28155755 -0.034681452 3.0443481e-20)
(0.31665049 -0.038376928 5.0477412e-20)
(0.35669858 -0.03997745 3.3563991e-21)
(-0.0049619675 0.009314461 1.6784442e-20)
(-0.0091664255 0.019098482 1.4468935e-20)
(-0.0078589751 0.023564104 5.1149538e-20)
(-0.0018571813 0.024329394 2.338998e-20)
(0.0082984284 0.022523757 1.8253367e-22)
(0.022226351 0.019013742 -3.939174e-20)
(0.039603905 0.014439575 -2.4315889e-20)
(0.060156753 0.0092642002 1.0466634e-20)
(0.083650678 0.0038202063 1.4402762e-20)
(0.10988128 -0.001655238 -1.3114666e-20)
(0.13866356 -0.0069959138 -4.4042604e-20)
(0.16982326 -0.012088762 2.96212e-20)
(0.20318951 -0.016861127 2.0022232e-20)
(0.23858907 -0.02127206 -2.7553761e-20)
(0.27584627 -0.025305605 1.1651368e-20)
(0.3147866 -0.028967547 2.4200031e-20)
(0.3551886 -0.032314651 8.0733312e-21)
(0.39668171 -0.035519545 -1.1765722e-20)
(0.43962951 -0.038406862 -1.4191381e-20)
(0.48804242 -0.038649996 5.8745843e-21)
(-0.004730894 0.0081239876 1.1094677e-20)
(-0.0070584374 0.01567155 -2.3354799e-20)
(-0.0020283037 0.018562187 8.6204731e-21)
(0.0090349921 0.018215945 3.3590694e-20)
(0.025260691 0.01565027 5.2128379e-20)
(0.046072941 0.011694001 2.0278086e-20)
(0.07099379 0.0069585364 -5.8644366e-21)
(0.099614246 0.0018796513 -1.2287149e-20)
(0.13158462 -0.0032314392 -6.2063258e-21)
(0.16659504 -0.0081548885 3.424357e-20)
(0.2043576 -0.012739585 -4.5110111e-21)
(0.24459244 -0.016886527 -1.6644821e-20)
(0.28701674 -0.02053714 -1.9695151e-20)
(0.33133663 -0.02366602 -4.7448055e-20)
(0.37724593 -0.026276331 2.3240835e-20)
(0.42443375 -0.028399885 -1.4097386e-20)
(0.47255043 -0.0301409 2.5996251e-20)
(0.52109136 -0.031797754 2.1043047e-20)
(0.57027331 -0.033366603 -8.5577396e-20)
(0.62477249 -0.03207621 -1.0766469e-22)
(-0.0037710333 0.0063147749 2.1926542e-20)
(-0.0028651335 0.010734996 -2.6167652e-20)
(0.0071440664 0.011563608 -4.5016591e-20)
(0.024454108 0.0099238714 -2.7255849e-20)
(0.047877144 0.0066504699 -2.0441381e-21)
(0.076637872 0.0024879697 1.305093e-20)
(0.11008919 -0.0020189228 -2.8338687e-21)
(0.14766819 -0.0064923648 1.8119797e-20)
(0.18888109 -0.010668941 8.8691116e-21)
(0.23327637 -0.014368873 -1.1380995e-20)
(0.28042043 -0.017476451 8.878817e-21)
(0.32987965 -0.019925393 -2.3905177e-20)
(0.38120718 -0.021688407 8.0513471e-21)
(0.43393398 -0.022770746 1.6757919e-20)
(0.48756715 -0.023206373 -2.6397487e-21)
(0.54159941 -0.023060203 1.6620183e-21)
(0.59549185 -0.022484028 -3.1947506e-22)
(0.64857795 -0.021885977 1.9592394e-20)
(0.70088567 -0.021462273 4.0437802e-21)
(0.7575173 -0.018517748 -5.7541315e-22)
(-0.0019107992 0.0040272901 2.3693864e-20)
(0.0038706974 0.0046759154 5.7164403e-20)
(0.020318418 0.0031867188 -4.9247732e-20)
(0.045183871 0.00029244979 -9.9461282e-21)
(0.076973757 -0.0034269382 2.0257682e-20)
(0.11470833 -0.0073572372 2.1435155e-21)
(0.15755484 -0.011059511 -2.9817137e-20)
(0.20476859 -0.014249627 6.9851822e-21)
(0.25567432 -0.016744375 7.1104266e-21)
(0.30963429 -0.018434388 -2.6256057e-20)
(0.36602089 -0.019268544 1.2928667e-21)
(0.42419885 -0.019241363 -3.7177146e-20)
(0.48351503 -0.018382789 -3.6344177e-20)
(0.5432942 -0.016750004 6.5689633e-20)
(0.60284086 -0.014420228 5.5633185e-21)
(0.66144531 -0.011490086 -1.5190693e-20)
(0.71836748 -0.0081175556 1.9365855e-20)
(0.77276118 -0.0046097506 -9.1897306e-22)
(0.82415231 -0.00098637615 2.0365535e-20)
(0.87628455 0.0043082019 -1.9557302e-20)
(-0.018830125 -0.0051008623 5.8361917e-20)
(-0.010216348 -0.0056362116 1.5786186e-20)
(-0.00021055374 -0.0060702873 -3.5145533e-20)
(0.010836496 -0.0063356219 1.6793458e-20)
(0.022658647 -0.0065136581 0)
(0.035197271 -0.0066317976 0)
(0.048392562 -0.0066927738 -2.2979472e-20)
(0.062164812 -0.0067044287 -1.6506124e-20)
(0.076443621 -0.0066761478 1.9126814e-20)
(0.091169492 -0.0066147204 1.8178043e-20)
(0.10628746 -0.0065253384 1.0525892e-21)
(0.12174575 -0.0064125657 -1.0319835e-20)
(0.13749606 -0.0062803611 8.3291753e-21)
(0.15349319 -0.0061320726 1.8237791e-20)
(0.1696944 -0.0059705637 -5.2291585e-21)
(0.18605906 -0.0057983205 -1.0177253e-20)
(0.20254844 -0.0056175146 -4.3205773e-21)
(0.21912554 -0.0054300556 -4.4265305e-21)
(0.23575495 -0.0052376363 7.367555e-22)
(0.25240284 -0.0050417677 1.2289805e-21)
(0.26903692 -0.0048438055 2.5677206e-21)
(0.28562642 -0.0046449702 6.6560575e-21)
(0.30214223 -0.0044463618 2.4849399e-22)
(0.31855683 -0.0042489705 -3.4527794e-21)
(0.33484446 -0.0040536847 1.5551801e-22)
(0.3509811 -0.0038612969 -5.7735234e-22)
(0.36694458 -0.0036725079 1.2440364e-21)
(0.38271458 -0.0034879312 1.0525424e-21)
(0.39827267 -0.0033080962 -1.3000776e-21)
(0.41360233 -0.0031334522 -1.2212945e-22)
(0.42868898 -0.0029643723 3.5017537e-23)
(0.44351989 -0.0028011579 -3.5219395e-22)
(0.45808422 -0.0026440434 -4.0645771e-22)
(0.47237299 -0.0024932015 5.5963244e-23)
(0.48637898 -0.0023487492 -1.3830051e-22)
(0.50009673 -0.0022107537 -2.2373775e-22)
(0.5135225 -0.0020792393 2.5617006e-22)
(0.52665425 -0.0019541939 2.9564545e-22)
(0.53949153 -0.0018355785 -8.7039056e-24)
(0.55203587 -0.0017233306 -1.5627383e-22)
(0.56428967 -0.0016173933 3.0397448e-23)
(0.57626012 -0.0015176697 -4.0271971e-23)
(0.58794784 -0.001424239 9.3113121e-23)
(0.59938312 -0.0013367643 2.1782951e-23)
(0.61051959 -0.001256558 -1.1649287e-22)
(0.62155484 -0.001180371 -6.9736547e-24)
(0.63200008 -0.0011205878 3.8451033e-26)
(0.64340098 -0.0010439609 -3.9003718e-24)
(0.65154104 -0.0010620682 2.9357691e-23)
(0.66835371 -0.00088836033 3.6361156e-22)
(0.01045671 -0.015021143 -1.2749275e-20)
(0.018192598 -0.016644909 -6.3312726e-20)
(0.027794538 -0.01791967 -3.0547637e-20)
(0.038403188 -0.018676633 3.848308e-20)
(0.049642007 -0.019188438 1.4665401e-20)
(0.061530902 -0.019534564 -1.8208843e-20)
(0.074040646 -0.01971527 4.6736503e-21)
(0.087094355 -0.019752156 2.5452229e-20)
(0.100629 -0.019673195 9.1512929e-23)
(0.11459439 -0.019497854 -7.661e-21)
(0.1289424 -0.019240744 -1.3023072e-20)
(0.14362646 -0.018914919 -8.5269218e-21)
(0.15860268 -0.018531795 1.7776296e-20)
(0.17382957 -0.018101032 8.9332316e-21)
(0.1892674 -0.017630915 -1.6525437e-20)
(0.20487801 -0.017128669 -6.0404871e-21)
(0.22062467 -0.016600633 3.2150242e-21)
(0.23647204 -0.016052407 8.373263e-21)
(0.25238609 -0.015488969 6.9853088e-21)
(0.26833411 -0.014914784 -6.9756312e-21)
(0.28428469 -0.014333867 -3.1707457e-21)
(0.30020787 -0.013749847 1.3621451e-21)
(0.31607509 -0.013166001 3.8846405e-22)
(0.33185935 -0.012585285 1.2122454e-21)
(0.34753526 -0.012010359 1.8413138e-22)
(0.36307908 -0.0114436 -3.2715127e-22)
(0.37846883 -0.010887113 -7.2508806e-22)
(0.39368431 -0.010342745 9.7319156e-22)
(0.40870712 -0.0098120929 8.2604644e-22)
(0.42352073 -0.0092965165 -1.5272671e-22)
(0.43811044 -0.008797148 5.5422171e-22)
(0.45246339 -0.0083149057 -2.3902462e-22)
(0.46656852 -0.0078505084 -3.7183688e-22)
(0.4804166 -0.007404491 -6.1143088e-22)
(0.49400009 -0.0069772214 4.4238814e-22)
(0.50731322 -0.006568919 -1.6811777e-23)
(0.52035185 -0.0061796745 1.6266416e-22)
(0.53311353 -0.0058094699 -4.4397481e-22)
(0.54559738 -0.0054582064 3.7496422e-22)
(0.55780448 -0.0051257147 6.7479677e-23)
(0.56973676 -0.0048118416 -1.0290903e-22)
(0.5814009 -0.0045163137 1.7839541e-22)
(0.59279707 -0.0042393835 2.3697506e-22)
(0.60395483 -0.0039800599 1.724748e-22)
(0.61482798 -0.0037422751 1.7170723e-22)
(0.62561122 -0.0035163531 -2.6866896e-23)
(0.63582222 -0.0033392082 8.8043598e-23)
(0.64698349 -0.0031118685 8.0304428e-23)
(0.65494403 -0.0031661111 -2.0037963e-22)
(0.67143697 -0.0026507733 -3.7332494e-23)
(0.067633816 -0.024035185 9.4545311e-21)
(0.073610934 -0.026755652 3.2960368e-21)
(0.082289329 -0.028812738 -1.2165375e-20)
(0.091974506 -0.029976152 -1.2264657e-21)
(0.10201297 -0.030775963 1.4973863e-20)
(0.11257942 -0.031339437 -1.4890008e-20)
(0.12371265 -0.031645049 -2.9848757e-20)
(0.13533739 -0.031722399 1.4497051e-20)
(0.14740171 -0.031617429 1.8186369e-20)
(0.15987267 -0.031360234 -1.1601383e-20)
(0.17271467 -0.030972371 1.0192837e-21)
(0.18589005 -0.030473664 8.6869541e-21)
(0.1993626 -0.029881812 -1.5257796e-20)
(0.21309723 -0.029211841 2.9125241e-21)
(0.2270594 -0.028476697 7.5219736e-21)
(0.24121509 -0.027687772 2.9838071e-23)
(0.255531 -0.026855154 2.6445947e-22)
(0.26997454 -0.025987822 -7.4180772e-21)
(0.28451392 -0.025093823 3.8652061e-21)
(0.29911825 -0.024180418 8.4787041e-21)
(0.31375762 -0.023254183 -3.8369572e-21)
(0.32840324 -0.022321087 -2.2137838e-21)
(0.34302752 -0.02138655 1.0122342e-21)
(0.35760421 -0.020455483 -1.7168081e-21)
(0.37210846 -0.019532319 1.3537716e-21)
(0.38651696 -0.01862103 7.187778e-22)
(0.40080797 -0.017725151 1.5300346e-21)
(0.41496142 -0.016847792 -1.9561328e-21)
(0.4289589 -0.015991655 2.2278738e-21)
(0.44278376 -0.015159048 5.5288449e-22)
(0.45642107 -0.014351905 4.0583991e-22)
(0.46985764 -0.013571808 3.2163241e-22)
(0.48308201 -0.012820008 8.7644707e-22)
(0.4960844 -0.01209745 -1.3760126e-21)
(0.50885673 -0.011404804 3.7238233e-22)
(0.52139254 -0.010742494 1.1124258e-22)
(0.53368699 -0.010110728 -4.581954e-23)
(0.54573687 -0.0095095337 8.6021903e-23)
(0.55754048 -0.0089388046 -3.7416674e-22)
(0.56909803 -0.0083983152 1.8469332e-22)
(0.58041059 -0.007887866 -3.5164307e-23)
(0.59148389 -0.0074070561 3.9603745e-22)
(0.60231728 -0.0069563538 -1.8857006e-22)
(0.61293894 -0.0065341682 4.7899615e-23)
(0.623303 -0.0061470329 4.474298e-23)
(0.63359869 -0.0057790581 -7.5655491e-23)
(0.64335599 -0.0054909628 -1.2621316e-22)
(0.65405306 -0.0051203863 4.019674e-22)
(0.66166527 -0.0052104077 1.77856e-22)
(0.67753847 -0.0043707088 -8.3745239e-22)
(0.15024513 -0.031469135 1.5015288e-21)
(0.15357897 -0.035266803 -1.1567955e-20)
(0.16065099 -0.038021053 6.6447672e-21)
(0.16884368 -0.039489849 -1.3327074e-20)
(0.17702319 -0.040532023 -1.9761934e-21)
(0.18556779 -0.041314197 9.1622738e-21)
(0.19463217 -0.041769723 -9.769359e-21)
(0.20413879 -0.041926744 1.5656631e-21)
(0.21404372 -0.041846895 1.2906512e-20)
(0.22433649 -0.041568414 3.4046062e-21)
(0.23499781 -0.041116622 -6.211071e-21)
(0.24600057 -0.040515512 -2.8651824e-21)
(0.25731737 -0.039787285 -5.8411878e-21)
(0.26892068 -0.038951056 -6.4575547e-21)
(0.28078196 -0.038023433 3.2349948e-21)
(0.29287193 -0.037019214 8.4454654e-22)
(0.30516104 -0.035951689 1.3690389e-21)
(0.31761973 -0.034832841 -3.3859859e-21)
(0.33021863 -0.03367353 -4.2456098e-21)
(0.34292875 -0.032483649 2.3631716e-21)
(0.3557217 -0.031272237 3.2277545e-21)
(0.36856987 -0.030047564 -1.5657059e-21)
(0.38144659 -0.028817182 1.5880224e-21)
(0.39432627 -0.027587975 -3.9216978e-22)
(0.40718456 -0.026366185 -3.9244535e-21)
(0.41999843 -0.025157436 -3.0355049e-21)
(0.43274626 -0.02396675 -1.9118578e-22)
(0.44540796 -0.022798569 4.2801643e-22)
(0.45796497 -0.02165677 -2.212748e-21)
(0.47040031 -0.020544687 -8.5793367e-22)
(0.48269865 -0.019465136 2.2855063e-22)
(0.49484625 -0.018420441 -1.2533242e-21)
(0.506831 -0.017412466 5.4798211e-24)
(0.51864237 -0.016442652 -4.2613191e-22)
(0.53027144 -0.015512052 -4.7265775e-22)
(0.54171082 -0.014621377 -5.237789e-22)
(0.55295469 -0.013771035 -8.4729194e-22)
(0.56399877 -0.012961182 -5.4082363e-23)
(0.57484024 -0.012191785 -3.9286864e-24)
(0.58547816 -0.01146264 -5.2434267e-22)
(0.59591239 -0.01077358 -9.1097442e-23)
(0.60614737 -0.010124151 -3.3677536e-22)
(0.61618138 -0.0095151008 -4.45152e-22)
(0.62604067 -0.0089443281 3.8529398e-22)
(0.63567992 -0.0084209203 1.5103532e-23)
(0.64528061 -0.0079231474 1.8720375e-22)
(0.65439041 -0.0075342748 -1.3826927e-22)
(0.66442377 -0.0070325396 -2.7602614e-22)
(0.67153809 -0.0071575556 -3.9605269e-23)
(0.68652242 -0.0060214557 4.6662865e-22)
(0.25472705 -0.036564231 -2.0903968e-20)
(0.25451391 -0.041405761 4.7592823e-20)
(0.25911978 -0.04475873 1.0349476e-20)
(0.26513368 -0.046455835 -1.5767992e-20)
(0.27076211 -0.047728793 -2.023715e-21)
(0.27657613 -0.048762945 2.6230853e-21)
(0.28289531 -0.049429568 -1.6617749e-21)
(0.28964059 -0.04974461 -4.6870555e-21)
(0.29676439 -0.049778583 -4.0167433e-21)
(0.30427767 -0.049574832 -1.2210251e-20)
(0.31217905 -0.049160078 1.7902845e-20)
(0.32045122 -0.048559792 6.524302e-21)
(0.32907414 -0.047798542 -1.6784458e-20)
(0.33802681 -0.046898173 1.0318471e-20)
(0.34728586 -0.045878027 8.3853487e-21)
(0.35682591 -0.044755609 -8.7769843e-22)
(0.36662041 -0.043546934 -3.1218012e-21)
(0.3766421 -0.042266691 -3.8225976e-21)
(0.38686333 -0.040928389 -1.3905756e-21)
(0.39725644 -0.039544484 -1.2316719e-21)
(0.40779399 -0.038126475 -3.0285909e-21)
(0.41844904 -0.036684972 0)
(0.42919537 -0.035229739 -1.3466733e-21)
(0.44000765 -0.033769729 3.9333181e-21)
(0.45086158 -0.032313104 5.4103041e-21)
(0.46173408 -0.030867254 -9.4150151e-22)
(0.47260332 -0.029438815 -2.9324426e-21)
(0.48344885 -0.028033682 3.0320246e-21)
(0.49425165 -0.026657031 2.5282113e-22)
(0.50499419 -0.025313347 3.4423121e-21)
(0.51566043 -0.024006445 -5.3499891e-22)
(0.52623585 -0.022739513 1.7207978e-21)
(0.53670743 -0.021515145 -8.0227043e-22)
(0.5470637 -0.020335391 2.9303632e-22)
(0.55729465 -0.019201802 -4.3643162e-22)
(0.56739177 -0.018115484 5.6418538e-22)
(0.57734802 -0.017077156 4.5976478e-22)
(0.58715786 -0.016087207 3.8509925e-22)
(0.59681715 -0.015145778 -9.6628585e-22)
(0.60632358 -0.014252791 6.8924636e-22)
(0.61567562 -0.013408203 -3.7293825e-22)
(0.62487622 -0.012611605 -1.1167759e-21)
(0.63392238 -0.011864099 1.4276908e-21)
(0.64283809 -0.011163187 -6.2795682e-23)
(0.65157884 -0.010520434 -1.6137385e-22)
(0.66031643 -0.0099087744 -8.0286386e-24)
(0.66862104 -0.009432302 -1.3170004e-22)
(0.67782661 -0.0088152356 -4.8014532e-22)
(0.6843208 -0.0089740479 8.7551818e-22)
(0.69819087 -0.0075783417 -4.4843489e-23)
(0.37640351 -0.038382356 -1.7498208e-20)
(0.37176434 -0.044285238 1.2833588e-20)
(0.37292419 -0.048177484 2.9767229e-21)
(0.37597084 -0.050115515 -7.6366395e-21)
(0.37836888 -0.051687411 1.2058049e-20)
(0.38078991 -0.053060594 7.7928334e-21)
(0.38374655 -0.054049034 -1.2649448e-20)
(0.38717492 -0.054652854 -6.0691546e-21)
(0.39100762 -0.054938497 1.2699889e-20)
(0.39526509 -0.054948354 -1.5309599e-20)
(0.39996147 -0.05470945 -1.4066176e-20)
(0.40508713 -0.054247291 1.4134629e-20)
(0.41062582 -0.05358699 6.8210285e-21)
(0.41655986 -0.052751965 -4.2073817e-21)
(0.42286865 -0.051763714 -1.853349e-21)
(0.42952873 -0.050642128 -4.0575088e-21)
(0.43651477 -0.049405766 5.3042638e-21)
(0.44380028 -0.048071985 3.669225e-21)
(0.45135805 -0.046657015 -3.241276e-21)
(0.45916057 -0.04517601 3.1388693e-21)
(0.46718037 -0.043643109 2.7685714e-21)
(0.4753903 -0.042071466 -3.2132351e-21)
(0.48376379 -0.040473271 3.7070785e-22)
(0.49227506 -0.038859766 -3.2583461e-21)
(0.50089928 -0.037241252 7.2552962e-21)
(0.50961272 -0.035627099 6.114774e-21)
(0.51839286 -0.034025756 8.1205358e-22)
(0.52721847 -0.03244477 -1.7703201e-21)
(0.53606966 -0.030890802 3.7104878e-21)
(0.54492799 -0.029369659 7.2041909e-21)
(0.55377642 -0.027886329 2.308678e-21)
(0.56259936 -0.026445018 3.3252841e-21)
(0.57138269 -0.025049205 2.0005337e-21)
(0.58011374 -0.023701692 7.4829162e-22)
(0.58878125 -0.022404665 -2.6412406e-22)
(0.59737544 -0.021159759 2.7323722e-21)
(0.60588791 -0.019968129 6.2291264e-22)
(0.61431173 -0.01883052 2.963321e-22)
(0.62264135 -0.017747365 5.6499806e-23)
(0.63087299 -0.016718822 9.9826527e-22)
(0.63900367 -0.01574508 4.7274718e-23)
(0.64703472 -0.014825877 4.4789878e-22)
(0.65496187 -0.013962752 -1.2755611e-22)
(0.66280661 -0.013152934 -2.8212335e-22)
(0.67052556 -0.012410367 -1.5507852e-22)
(0.67827936 -0.011703235 -4.3173728e-22)
(0.68566473 -0.011154397 1.6766618e-22)
(0.69392141 -0.01044048 -1.3068962e-22)
(0.69970665 -0.010631532 -4.990173e-22)
(0.71229025 -0.0090193805 2.4884627e-22)
(0.50933522 -0.035990934 3.6469022e-21)
(0.49959366 -0.042978176 -1.8960253e-20)
(0.49634143 -0.047401851 -2.3088763e-21)
(0.49562476 -0.049756002 5.4876856e-21)
(0.4942415 -0.051838124 3.0537215e-21)
(0.49277097 -0.053726357 -4.9053217e-23)
(0.49189098 -0.055209454 6.1917859e-21)
(0.49159687 -0.05628805 7.6268217e-21)
(0.49179793 -0.05701402 9.8596623e-21)
(0.49250113 -0.057419885 -1.1252668e-20)
(0.49372585 -0.057531426 -2.1585258e-20)
(0.49546726 -0.057374344 -3.9372728e-21)
(0.49770914 -0.056973853 1.5942868e-20)
(0.50043277 -0.056354521 1.2812782e-20)
(0.50361704 -0.055540032 -5.9072961e-21)
(0.5072379 -0.054552935 1.3804218e-21)
(0.51126916 -0.053414669 -3.6627577e-21)
(0.51568332 -0.052145633 2.2481566e-21)
(0.52045211 -0.050765168 -2.9131722e-22)
(0.52554691 -0.049291539 -1.866422e-21)
(0.53093908 -0.04774192 7.8323847e-21)
(0.53660031 -0.046132396 -2.9420601e-22)
(0.54250282 -0.04447795 4.1936239e-22)
(0.54861963 -0.042792459 -6.5562382e-22)
(0.55492469 -0.041088684 -4.3065249e-21)
(0.56139304 -0.039378273 4.2123464e-21)
(0.56800092 -0.037671769 1.9039811e-21)
(0.57472584 -0.035978626 -3.3117971e-21)