/*--------------------------------*- C++ -*----------------------------------*\
  =========                 |
  \\      /  F ield         | OpenFOAM: The Open Source CFD Toolbox
   \\    /   O peration     | Website:  https://openfoam.org
    \\  /    A nd           | Version:  6
     \\/     M anipulation  |
\*---------------------------------------------------------------------------*/
FoamFile
{
    version     2.0;
    format      ascii;
    class       volScalarField;
    location    "263";
    object      pMean;
}
// * * * * * * * * * * * * * * * * * * * * * * * * * * * * * * * * * * * * * //

dimensions      [0 2 -2 0 0 0 0];

internalField   nonuniform List<scalar> 
9200
(
-0.39010842
-0.37830464
-0.3677762
-0.35846275
-0.34935577
-0.34046156
-0.33186185
-0.32352209
-0.31537225
-0.30733891
-0.29934874
-0.29133335
-0.28323635
-0.27502051
-0.266678
-0.25824774
-0.24980974
-0.2414546
-0.23419383
-0.23225586
-0.40834762
-0.39409406
-0.38162674
-0.37078766
-0.36029518
-0.3501244
-0.34034746
-0.33089955
-0.32167954
-0.31258907
-0.30353634
-0.29444185
-0.28524583
-0.27591393
-0.26644243
-0.25686168
-0.24720697
-0.23748287
-0.22836622
-0.22200416
-0.42694652
-0.41022948
-0.3958751
-0.38358295
-0.3717594
-0.36033038
-0.34934727
-0.33870826
-0.3282802
-0.31794479
-0.30760192
-0.29717501
-0.28661748
-0.27591529
-0.2650863
-0.25417541
-0.24322684
-0.23225372
-0.22165447
-0.21254304
-0.44545563
-0.42630201
-0.41012971
-0.39644608
-0.38330886
-0.37057908
-0.35828052
-0.34627515
-0.33440704
-0.32255441
-0.31063036
-0.29858526
-0.28640921
-0.27412914
-0.26180157
-0.24950201
-0.23730109
-0.22523985
-0.21358642
-0.20308577
-0.46322903
-0.44174941
-0.42387874
-0.40887979
-0.3944353
-0.38033161
-0.36656616
-0.35297677
-0.3394065
-0.32575792
-0.31198724
-0.29809952
-0.28414371
-0.27020205
-0.25637625
-0.24277321
-0.22948481
-0.21656927
-0.20421529
-0.19293536
-0.47942722
-0.45583735
-0.43644592
-0.4202196
-0.40445815
-0.38887472
-0.37345438
-0.35803787
-0.34250215
-0.32681068
-0.31099503
-0.29513857
-0.27936138
-0.26380174
-0.24859794
-0.23387349
-0.21972232
-0.20619784
-0.1934256
-0.1817466
-0.49303206
-0.46766586
-0.44699227
-0.42963724
-0.41253652
-0.39534748
-0.37807221
-0.36059607
-0.34287463
-0.32497102
-0.30701918
-0.28919312
-0.27168175
-0.25466548
-0.23829818
-0.2226966
-0.20793352
-0.19403602
-0.18106948
-0.16923748
-0.5028696
-0.47619385
-0.45454976
-0.43618893
-0.41773498
-0.39882501
-0.37952199
-0.35980858
-0.33976692
-0.31959354
-0.29954055
-0.27987068
-0.26082592
-0.2426049
-0.225351
-0.20915064
-0.19403648
-0.17999548
-0.16703417
-0.15524006
-0.50759024
-0.48013637
-0.45782146
-0.43852862
-0.41866995
-0.39792575
-0.37648032
-0.35447022
-0.33214226
-0.30984009
-0.28792565
-0.26672658
-0.24650658
-0.22745123
-0.20966759
-0.19319377
-0.17801223
-0.16406621
-0.15130751
-0.13972406
-0.50584132
-0.4780706
-0.45525243
-0.43498498
-0.41361756
-0.39095774
-0.36737576
-0.34320597
-0.31887121
-0.29484319
-0.27155496
-0.249353
-0.22848009
-0.20907648
-0.19119335
-0.17481275
-0.15986804
-0.14626484
-0.13390758
-0.12269721
-0.27329575
-0.27776752
-0.27996041
-0.28043269
-0.27992317
-0.278607
-0.27657457
-0.27391839
-0.27071259
-0.26701378
-0.26286807
-0.25831494
-0.25338937
-0.24812332
-0.2425469
-0.23669092
-0.23058827
-0.22426143
-0.21771103
-0.21102624
-0.27615802
-0.2801992
-0.28207761
-0.28232821
-0.28163434
-0.28016245
-0.27800088
-0.27523806
-0.27194425
-0.26817305
-0.26396798
-0.2593663
-0.25440097
-0.24910182
-0.24349628
-0.23761398
-0.23149523
-0.22516084
-0.21850325
-0.21149598
-0.28173475
-0.28493617
-0.2862029
-0.28602004
-0.28496496
-0.28318856
-0.28077524
-0.27780541
-0.27434189
-0.27043229
-0.26611499
-0.26142274
-0.25638448
-0.25102599
-0.24536964
-0.23944198
-0.2332945
-0.22694706
-0.22009847
-0.21248361
-0.28976547
-0.29176817
-0.29215137
-0.29133145
-0.28973962
-0.28750698
-0.28471331
-0.28142822
-0.27770421
-0.27358049
-0.26908814
-0.26425337
-0.25909928
-0.25364567
-0.24790787
-0.24190694
-0.23570587
-0.22932944
-0.22223077
-0.21376823
-0.29992231
-0.30043132
-0.29969285
-0.29804516
-0.29574558
-0.29290436
-0.28959733
-0.28588177
-0.28179802
-0.2773754
-0.27263615
-0.26759774
-0.26227533
-0.25668147
-0.25082317
-0.24471289
-0.23842102
-0.2319858
-0.2246053
-0.21512027
-0.31186545
-0.31065202
-0.30859083
-0.30594186
-0.30277281
-0.29917467
-0.29522156
-0.29095875
-0.28641375
-0.28160357
-0.27653903
-0.27122784
-0.26567592
-0.2598871
-0.25385909
-0.24759297
-0.24115867
-0.23461388
-0.22693231
-0.21632281
-0.325293
-0.322186
-0.3186375
-0.31483585
-0.3106519
-0.30616097
-0.30143939
-0.29652001
-0.29141494
-0.28612808
-0.28065821
-0.27500125
-0.26915219
-0.26310506
-0.25684846
-0.25037188
-0.24373798
-0.23702697
-0.22905239
-0.21733016
-0.33997055
-0.33484239
-0.32967701
-0.3246006
-0.31928457
-0.31379174
-0.30820098
-0.3025322
-0.29678213
-0.29093971
-0.28498886
-0.27891088
-0.27268688
-0.26629873
-0.25972553
-0.25294824
-0.2460272
-0.23908867
-0.23090435
-0.2182988
-0.35573039
-0.34847497
-0.3415858
-0.33513682
-0.32859405
-0.32200671
-0.31545829
-0.30895534
-0.30247657
-0.29599293
-0.28947019
-0.28287109
-0.27615778
-0.26929213
-0.26223129
-0.25492968
-0.24741319
-0.23979107
-0.23083388
-0.21707663
-0.37246218
-0.36296325
-0.3542377
-0.34631212
-0.3384349
-0.33064155
-0.32302017
-0.31556195
-0.30822538
-0.30096219
-0.29372007
-0.28644547
-0.27908655
-0.2715934
-0.26391275
-0.25598375
-0.24775321
-0.23902121
-0.2281675
-0.21219988
-0.20345657
-0.19403167
-0.18462888
-0.17532159
-0.16605303
-0.15686398
-0.14781001
-0.13892711
-0.13024414
-0.12178908
-0.11358705
-0.10565919
-0.098023242
-0.090693944
-0.083683077
-0.076999556
-0.070649572
-0.064636744
-0.058962244
-0.053624948
-0.048621588
-0.043946922
-0.03959391
-0.035553903
-0.031816841
-0.028371455
-0.025205471
-0.022305816
-0.019658816
-0.017250389
-0.015066232
-0.013091991
-0.01131342
-0.0097165307
-0.0082877241
-0.0070139151
-0.0058826511
-0.0048822045
-0.0040017493
-0.0032312656
-0.0025624141
-0.0019863834
-0.0015016513
-0.0010911601
-0.00079445142
-0.00049378581
-0.00055773106
3.7600346e-05
-0.0017874342
0.0026820237
-0.2046539
-0.19480786
-0.18528335
-0.1759837
-0.16668798
-0.15745858
-0.14837087
-0.13945704
-0.13074313
-0.12225775
-0.11402641
-0.10607013
-0.098406603
-0.091050644
-0.084014097
-0.077305922
-0.070932358
-0.064897064
-0.059201245
-0.053843798
-0.048821465
-0.044129002
-0.03975936
-0.03570387
-0.031952446
-0.028493784
-0.02531557
-0.022404686
-0.01974741
-0.017329609
-0.015136927
-0.013154955
-0.011369394
-0.009766199
-0.0083317187
-0.007052815
-0.0059169844
-0.0049124497
-0.0040283372
-0.0032545804
-0.0025827944
-0.0020041246
-0.0015169877
-0.0011043229
-0.00080539963
-0.00050307793
-0.00056326147
3.0151459e-05
-0.0017745317
0.0026529609
-0.20711445
-0.19637604
-0.18661203
-0.1773703
-0.16803538
-0.15872714
-0.14957498
-0.14060137
-0.13182505
-0.12327695
-0.11498403
-0.10696722
-0.099244314
-0.091830477
-0.084737832
-0.077975548
-0.071550049
-0.065465151
-0.05972218
-0.054320116
-0.049255755
-0.044523873
-0.040117414
-0.036027678
-0.032244524
-0.028756577
-0.025551435
-0.02261588
-0.01993608
-0.017497786
-0.015286518
-0.013287742
-0.011487033
-0.009870222
-0.0084235324
-0.0071337056
-0.005988121
-0.0049748883
-0.0040830254
-0.0033023611
-0.0026244087
-0.002040216
-0.0015480744
-0.0011308946
-0.00082743311
-0.000521653
-0.00057434682
1.5498523e-05
-0.0017490801
0.0025954226
-0.21061243
-0.19845048
-0.18834026
-0.17928671
-0.1699454
-0.16053902
-0.15131227
-0.14227033
-0.13341575
-0.12478477
-0.11640842
-0.1083078
-0.10050103
-0.093004161
-0.085830056
-0.078988422
-0.072486134
-0.066327395
-0.060513841
-0.055044679
-0.049916867
-0.045125282
-0.040662914
-0.03652106
-0.032689535
-0.029156883
-0.025910593
-0.022937313
-0.020223056
-0.017753404
-0.015513699
-0.013489221
-0.011665353
-0.010027735
-0.0085624036
-0.0072559136
-0.0060954641
-0.0050689908
-0.004165344
-0.0033741907
-0.002686887
-0.00209433
-0.0015946208
-0.0011706194
-0.00086032558
-0.00054931248
-0.00059084739
-6.1458876e-06
-0.0017115845
0.0025106196
-0.21484865
-0.20070598
-0.1901508
-0.18148858
-0.17222923
-0.16272918
-0.15343917
-0.14434498
-0.13541699
-0.1266987
-0.11823015
-0.11003381
-0.10212835
-0.094531367
-0.087257212
-0.08031668
-0.073717523
-0.067464693
-0.061560436
-0.05600444
-0.050794023
-0.045924318
-0.041388479
-0.037177888
-0.033282371
-0.029690427
-0.026389448
-0.023365939
-0.020605742
-0.018094239
-0.01581655
-0.01375772
-0.011902892
-0.010237457
-0.0087472027
-0.0074184406
-0.0062381302
-0.0051939742
-0.0042745992
-0.0034694546
-0.0027696857
-0.0021659863
-0.0016562032
-0.0012231251
-0.00090375329
-0.00058576733
-0.00061258418
-3.4442383e-05
-0.0016628827
0.0024004365
-0.21941465
-0.2028189
-0.19173749
-0.18370377
-0.17467745
-0.16512152
-0.15579428
-0.14668452
-0.13771176
-0.12892097
-0.12036632
-0.11207522
-0.10406756
-0.09636298
-0.088978236
-0.081926033
-0.07521562
-0.068853207
-0.062842096
-0.057182827
-0.05187338
-0.046909395
-0.042284386
-0.037989972
-0.034016108
-0.030351327
-0.026982975
-0.023897448
-0.021080421
-0.018517067
-0.016192264
-0.01409079
-0.012197501
-0.010497497
-0.008976265
-0.007619819
-0.0064148244
-0.0053486971
-0.0044097855
-0.0035872684
-0.0028720282
-0.0022545051
-0.0017322278
-0.0012878963
-0.0009572745
-0.00063063131
-0.00063932417
-6.8963251e-05
-0.0016040572
0.0022673239
-0.22387502
-0.20458291
-0.19286927
-0.18563173
-0.17706429
-0.16756541
-0.1582412
-0.149157
-0.14018572
-0.13135659
-0.12273633
-0.11436265
-0.1062592
-0.098448247
-0.090949695
-0.083779198
-0.076948361
-0.070465314
-0.064334969
-0.058559195
-0.053137036
-0.048064955
-0.043337089
-0.038945497
-0.034880424
-0.031130552
-0.027683268
-0.024524909
-0.021641015
-0.019016557
-0.016636166
-0.014484329
-0.01254559
-0.010804713
-0.0092468463
-0.0078576562
-0.0066234659
-0.0055313539
-0.0045693409
-0.0037262856
-0.0029927585
-0.0023588985
-0.0018218551
-0.0013642263
-0.0010203032
-0.00068341915
-0.00067078153
-0.0001092484
-0.0015363526
0.0021141528
-0.22794696
-0.20637667
-0.19376512
-0.18708418
-0.17917009
-0.16996378
-0.16072581
-0.15169578
-0.14276622
-0.13393913
-0.12528036
-0.11684063
-0.10865179
-0.10073999
-0.093128749
-0.085837458
-0.078880917
-0.072269832
-0.066011262
-0.060108865
-0.054563141
-0.049371707
-0.044529594
-0.040029524
-0.035862203
-0.032016605
-0.028480257
-0.025239514
-0.022279826
-0.01958599
-0.017142396
-0.014933237
-0.012942723
-0.01115526
-0.0095556179
-0.0081290807
-0.0068615862
-0.0057398321
-0.0047514669
-0.0038849841
-0.0031305968
-0.0024780998
-0.0019242033
-0.001451398
-0.0010922672
-0.00074368098
-0.00070672638
-0.00015490485
-0.0014611533
0.0019441681
-0.2292921
-0.20840193
-0.19508276
-0.18798732
-0.18056018
-0.17193519
-0.16297268
-0.15406749
-0.14523753
-0.13647786
-0.12783763
-0.11937564
-0.11113527
-0.10314892
-0.095444405
-0.088045524
-0.080971183
-0.074235562
-0.067848648
-0.061816598
-0.056142008
-0.050824216
-0.045859635
-0.041242068
-0.036963035
-0.033012086
-0.029377122
-0.026044694
-0.0230003
-0.020228664
-0.017713996
-0.015440237
-0.013391278
-0.011551164
-0.0099042712
-0.0084354729
-0.0071302868
-0.005974989
-0.004956811
-0.0040638344
-0.0032858662
-0.0026123095
-0.0020393728
-0.0015494238
-0.0011731259
-0.00081127188
-0.00074719095
-0.00020535961
-0.0013802747
0.0017616034
-0.21961771
-0.20775039
-0.1963244
-0.18782528
-0.18034423
-0.17250804
-0.16416099
-0.15562757
-0.14708651
-0.13856579
-0.13009571
-0.12173545
-0.11354137
-0.10555672
-0.097817179
-0.090353672
-0.0831918
-0.076351594
-0.069848022
-0.063691468
-0.057888096
-0.052440204
-0.047346608
-0.042603037
-0.038202504
-0.034135688
-0.030391289
-0.026956388
-0.023816783
-0.0209573
-0.018362099
-0.016014943
-0.013899446
-0.011999305
-0.010298494
-0.0087814487
-0.0074332286
-0.0062396417
-0.0051874514
-0.0042642719
-0.0034594488
-0.0027619351
-0.002167378
-0.0016579734
-0.0012623373
-0.00088530585
-0.00079166219
-0.0002586061
-0.0012961381
0.0015721103
-0.19779919
-0.20171599
-0.19592952
-0.18666879
-0.17878195
-0.17136834
-0.16347833
-0.15525504
-0.14696204
-0.138664
-0.13038361
-0.12217584
-0.11410106
-0.10620717
-0.098533319
-0.091113628
-0.083976912
-0.077146221
-0.070639234
-0.064468774
-0.058643172
-0.053166634
-0.048039639
-0.043259341
-0.03881997
-0.03471322
-0.030928634
-0.027453973
-0.024275573
-0.021378676
-0.018747747
-0.016366761
-0.014219464
-0.012289617
-0.010561205
-0.0090186239
-0.0076468611
-0.00643162
-0.0053595332
-0.0044180687
-0.0035963755
-0.0028832738
-0.0022739217
-0.0017509419
-0.0013401001
-0.00095264412
-0.0008301304
-0.00031146559
-0.001208661
0.0013839952
-0.18694275
-0.19196683
-0.1880171
-0.17900486
-0.17147878
-0.16485837
-0.15780635
-0.15033179
-0.14272594
-0.13506528
-0.12736349
-0.11967163
-0.11205271
-0.10455867
-0.097232572
-0.090112724
-0.083232342
-0.076618831
-0.070294041
-0.064274744
-0.058572968
-0.053196347
-0.04814851
-0.043429484
-0.039036097
-0.034962385
-0.03119998
-0.027738498
-0.024565908
-0.021668878
-0.01903311
-0.016643638
-0.014485112
-0.01254205
-0.010799064
-0.0092410644
-0.0078534484
-0.0066222402
-0.0055343047
-0.0045772893
-0.0037403854
-0.0030125778
-0.0023885226
-0.0018519067
-0.0014245068
-0.001027093
-0.00087068645
-0.00037336268
-0.0011081316
0.0011801869
-0.17782701
-0.18035959
-0.17764632
-0.17039198
-0.16376232
-0.15787443
-0.15162271
-0.14490947
-0.13799576
-0.13097733
-0.12387029
-0.11671981
-0.10958784
-0.10252834
-0.095586717
-0.088803961
-0.082216482
-0.075855194
-0.069745538
-0.063907847
-0.058357639
-0.053105894
-0.048159407
-0.043521167
-0.039190745
-0.035164689
-0.031436917
-0.027999103
-0.024841053
-0.021951065
-0.019316267
-0.016922933
-0.014756782
-0.012803238
-0.011047677
-0.0094756435
-0.0080730455
-0.0068263177
-0.0057226315
-0.0047498764
-0.0038973274
-0.0031541865
-0.0025145729
-0.00196339
-0.0015179852
-0.0011097471
-0.00091590599
-0.00044212437
-0.00099793241
0.00095605962
-0.16777031
-0.16783179
-0.16561428
-0.16045109
-0.15508449
-0.14997705
-0.1445487
-0.13867579
-0.13253142
-0.12621646
-0.11976239
-0.1132126
-0.10662582
-0.10005677
-0.093552924
-0.087157495
-0.080909649
-0.074843531
-0.068988047
-0.063367078
-0.057999699
-0.052900384
-0.048079296
-0.043542622
-0.039292937
-0.035329574
-0.031649011
-0.028245249
-0.025110193
-0.02223401
-0.019605486
-0.017212345
-0.015041561
-0.013079637
-0.011312862
-0.0097275419
-0.008310212
-0.0070478123
-0.0059278997
-0.0049386699
-0.0040695308
-0.0033099363
-0.0026534852
-0.0020863086
-0.0016212659
-0.0012004443
-0.00096678783
-0.00051473765
-0.00088575246
0.00072189444
-0.15683866
-0.15515655
-0.1530224
-0.14958455
-0.14553584
-0.14126815
-0.13666759
-0.13166487
-0.12634137
-0.12078016
-0.11502783
-0.10913026
-0.10314207
-0.097116914
-0.091103343
-0.085146042
-0.079286153
-0.073560456
-0.068000934
-0.06263479
-0.057484556
-0.052568212
-0.047899389
-0.043487646
-0.039338777
-0.035455153
-0.031836081
-0.028478164
-0.02537568
-0.022520937
-0.019904625
-0.017516157
-0.01534398
-0.013375871
-0.011599207
-0.010001212
-0.008569181
-0.0072906738
-0.0061537291
-0.0051469257
-0.0042598685
-0.003482298
-0.0028073433
-0.0022223083
-0.001735718
-0.0012999029
-0.0010245757
-0.00059023271
-0.00077751027
0.00048584249
-0.14473872
-0.14237408
-0.14041346
-0.13826259
-0.13540458
-0.13200334
-0.12821829
-0.12406424
-0.11956351
-0.11477206
-0.10974355
-0.10452562
-0.099168544
-0.093723582
-0.088239117
-0.08276022
-0.077328882
-0.071983507
-0.066758372
-0.061683409
-0.056784172
-0.05208186
-0.047593415
-0.043331715
-0.039305812
-0.035521217
-0.031980217
-0.02868221
-0.025624055
-0.022800418
-0.020204126
-0.017826495
-0.015657658
-0.013686862
-0.011902757
-0.010293647
-0.0088477369
-0.0075533335
-0.0063990688
-0.0053739953
-0.0044679949
-0.0036711372
-0.0029761633
-0.0023714557
-0.0018615275
-0.0014081049
-0.0010899849
-0.00066782462
-0.00067905757
0.000256486
-0.13179202
-0.12963059
-0.1280663
-0.12684396
-0.12496802
-0.12240261
-0.11940353
-0.1160504
-0.11234157
-0.10830729
-0.10399964
-0.099467457
-0.094755797
-0.089911119
-0.084980395
-0.080008193
-0.0750363
-0.070103588
-0.065245602
-0.060494177
-0.055877223
-0.051418629
-0.047138266
-0.043052069
-0.039172198
-0.035507246
-0.032062498
-0.028840218
-0.025839968
-0.023058923
-0.020492214
-0.018133243
-0.015974013
-0.014005425
-0.012217573
-0.01060001
-0.0091419956
-0.0078327221
-0.0066615344
-0.0056180593
-0.0046925489
-0.0038754504
-0.0031592264
-0.0025332174
-0.0019983921
-0.0015247033
-0.0011634843
-0.00074678154
-0.00059624745
4.3006547e-05
-0.11870421
-0.11716946
-0.11613074
-0.11558334
-0.11448149
-0.11267413
-0.1104088
-0.10779351
-0.10482346
-0.10151154
-0.097901704
-0.094040436
-0.089969361
-0.085729429
-0.081363146
-0.076913375
-0.072420951
-0.067924218
-0.063458896
-0.059057738
-0.054750176
-0.050562094
-0.046515719
-0.042629603
-0.038918687
-0.035394426
-0.032064975
-0.028935414
-0.026008016
-0.023282532
-0.020756489
-0.018425507
-0.016283598
-0.014323471
-0.012536817
-0.010914588
-0.009447248
-0.0081250063
-0.0069380456
-0.0058766737
-0.004931615
-0.0040937517
-0.0033553973
-0.0027067213
-0.0021457199
-0.0016492037
-0.0012453395
-0.00082665745
-0.00053418137
-0.00014588382
-0.10600467
-0.10516663
-0.10467171
-0.10463776
-0.10414225
-0.10299244
-0.10138919
-0.099440225
-0.097143868
-0.094503637
-0.091553525
-0.08833439
-0.084883275
-0.081236615
-0.077432294
-0.073509065
-0.06950549
-0.065458611
-0.061403425
-0.057372628
-0.053396267
-0.049501421
-0.045711988
-0.042048558
-0.038528388
-0.035165433
-0.031970452
-0.028951165
-0.026112458
-0.023456615
-0.020983582
-0.018691245
-0.016575716
-0.014631617
-0.012852361
-0.011230426
-0.0097576087
-0.0084252636
-0.0072245311
-0.0061465079
-0.0051824974
-0.0043238822
-0.0035629688
-0.0028906375
-0.0023025386
-0.0017809156
-0.0013355203
-0.00090733896
-0.00049646505
-0.00030311722
-0.093969305
-0.093739078
-0.093734155
-0.094105617
-0.094088567
-0.093491664
-0.092467303
-0.091108491
-0.089415503
-0.087387039
-0.085047837
-0.0824315
-0.079569664
-0.076493605
-0.073236628
-0.069833317
-0.066318457
-0.062726571
-0.059091136
-0.055443969
-0.051814868
-0.048231288
-0.044718053
-0.041297145
-0.037987573
-0.034805329
-0.031763406
-0.02887188
-0.026138043
-0.023566583
-0.021159792
-0.018917805
-0.016838854
-0.01491953
-0.013155047
-0.011539504
-0.010066135
-0.0087275505
-0.0075159574
-0.0064233446
-0.0054417001
-0.0045629782
-0.0037796258
-0.0030831415
-0.0024674619
-0.0019189163
-0.0014336369
-0.00098896533
-0.00048465714
-0.00042430472
-0.082732545
-0.082975708
-0.083370521
-0.084059945
-0.084419056
-0.084275282
-0.083742438
-0.082895067
-0.081732718
-0.080251018
-0.078466866
-0.07640629
-0.074094994
-0.071558877
-0.06882608
-0.065926737
-0.062891745
-0.059752146
-0.056538866
-0.053282069
-0.050010548
-0.046751364
-0.043529525
-0.04036772
-0.037286107
-0.034302187
-0.031430738
-0.028683824
-0.026070859
-0.023598716
-0.021271885
-0.019092658
-0.017061346
-0.015176507
-0.013435186
-0.01183316
-0.010365177
-0.0090251857
-0.0078065531
-0.0067022529
-0.0057050573
-0.0048075665
-0.0040025129
-0.0032819566
-0.002638717
-0.002062042
-0.0015389112
-0.0010717832
-0.00049798523
-0.00050848013
-0.072351151
-0.072937033
-0.073632625
-0.074560137
-0.075207781
-0.075425243
-0.075297718
-0.074882701
-0.074177403
-0.073174852
-0.07188542
-0.07032801
-0.06852228
-0.066488682
-0.064250077
-0.061831683
-0.059260158
-0.056562855
-0.053767449
-0.050901612
-0.04799242
-0.045065837
-0.042146356
-0.039256698
-0.036417545
-0.033647338
-0.030962146
-0.028375597
-0.025898869
-0.023540741
-0.02130768
-0.01920398
-0.017231927
-0.015391991
-0.01368303
-0.012102515
-0.010646744
-0.0093110634
-0.0080900716
-0.0069778046
-0.0059679072
-0.0050537005
-0.0042283392
-0.0034844262
-0.0028141955
-0.0022088855
-0.0016501705
-0.0011559672
-0.00053341785
-0.00055834014
-0.062834502
-0.063653942
-0.064559515
-0.06565217
-0.066511108
-0.067006844
-0.067203237
-0.067143653
-0.066822658
-0.066230973
-0.065373553
-0.064262972
-0.062913146
-0.061339219
-0.059558854
-0.057592274
-0.055461558
-0.053190039
-0.050801871
-0.048321667
-0.045774094
-0.043183374
-0.04057284
-0.037964599
-0.035379235
-0.032835552
-0.03035038
-0.027938443
-0.025612281
-0.023382237
-0.021256482
-0.019241095
-0.01734018
-0.015556006
-0.013889184
-0.012338848
-0.010902851
-0.0095779633
-0.0083600629
-0.0072443073
-0.006225289
-0.0052971213
-0.0044535068
-0.0036876066
-0.0029915193
-0.0023578028
-0.0017658696
-0.0012414514
-0.00058612488
-0.00057982876
-0.054165768
-0.055132934
-0.056172306
-0.057366594
-0.058369586
-0.059070304
-0.05951638
-0.059739956
-0.059733401
-0.059485605
-0.058997134
-0.058275187
-0.057328538
-0.056167402
-0.054804523
-0.053255272
-0.051537117
-0.049669144
-0.047671708
-0.045566068
-0.043373999
-0.041117401
-0.038817863
-0.036496288
-0.034172565
-0.031865285
-0.029591501
-0.027366534
-0.025203845
-0.023114955
-0.021109411
-0.019194813
-0.017376869
-0.015659492
-0.01404493
-0.012533913
-0.011125815
-0.0098188275
-0.0086101261
-0.0074960306
-0.0064721404
-0.0055334259
-0.0046742486
-0.0038883721
-0.0031681187
-0.002506936
-0.001884148
-0.0013278195
-0.00065026334
-0.00058107106
-0.046312392
-0.047361536
-0.048474066
-0.049717718
-0.050808207
-0.051650948
-0.052281171
-0.052722292
-0.052965207
-0.052997614
-0.052816703
-0.052425313
-0.05182785
-0.051030194
-0.050040634
-0.048870023
-0.047531399
-0.046039631
-0.044411138
-0.042663607
-0.040815642
-0.0388864
-0.036895232
-0.034861313
-0.032803297
-0.030739013
-0.0286852
-0.026657273
-0.024669145
-0.022733093
-0.020859676
-0.019057696
-0.017334206
-0.015694557
-0.014142479
-0.012680182
-0.011308491
-0.010026979
-0.0088341146
-0.0077273954
-0.006703469
-0.0057582184
-0.0048867588
-0.004083518
-0.0033413148
-0.0026542535
-0.0020029234
-0.0014142809
-0.00071992502
-0.00057086025
-0.039231459
-0.040313507
-0.041452889
-0.042705091
-0.043837415
-0.044769818
-0.04552815
-0.046129188
-0.046563084
-0.046817022
-0.046885796
-0.046768892
-0.046467215
-0.045983028
-0.045320779
-0.044487298
-0.043491561
-0.042344432
-0.041058478
-0.039647754
-0.038127528
-0.036513974
-0.034823846
-0.033074163
-0.031281879
-0.029463568
-0.027635153
-0.025811646
-0.024006937
-0.022233622
-0.020502867
-0.018824325
-0.017206094
-0.015654709
-0.014175176
-0.012771034
-0.011444444
-0.010196289
-0.0090262903
-0.0079331173
-0.0069144849
-0.00596723
-0.0050872985
-0.0042698506
-0.0035083956
-0.002797607
-0.0021200101
-0.0014997307
-0.00079001522
-0.00055707314
-0.032874196
-0.033953744
-0.035085996
-0.036316396
-0.037455181
-0.038435157
-0.039275191
-0.039987113
-0.040560967
-0.040984031
-0.041249593
-0.041354736
-0.041297727
-0.041077989
-0.040696827
-0.040157662
-0.039465903
-0.03862879
-0.037655286
-0.036555937
-0.035342675
-0.03402858
-0.032627613
-0.031154336
-0.029623636
-0.028050423
-0.026449357
-0.024834588
-0.023219529
-0.021616648
-0.020037307
-0.01849163
-0.016988421
-0.015535107
-0.014137726
-0.01280095
-0.01152812
-0.01032132
-0.0091814528
-0.0081083208
-0.0071007019
-0.0061564095
-0.0052722758
-0.0044442575
-0.0036666824
-0.0029347972
-0.0022332425
-0.0015828665
-0.00085683464
-0.00054544579
-0.027189369
-0.028241983
-0.029343299
-0.03053051
-0.031649544
-0.032644466
-0.033529003
-0.034311385
-0.034982031
-0.035528804
-0.035944235
-0.036223845
-0.036364066
-0.036362241
-0.036217251
-0.035929777
-0.035502248
-0.03493877
-0.034245083
-0.033428498
-0.032497768
-0.031462922
-0.030335066
-0.029126157
-0.027848767
-0.02651583
-0.025140384
-0.023735323
-0.022313163
-0.020885827
-0.019464462
-0.018059277
-0.016679421
-0.015332893
-0.014026487
-0.012765764
-0.01155506
-0.010397509
-0.0092950863
-0.0082486592
-0.0072580355
-0.006322004
-0.0054383131
-0.0046037666
-0.0038135855
-0.0030636408
-0.0023405774
-0.0016623182
-0.00091822978
-0.00053903285
-0.02212557
-0.023135445
-0.024190211
-0.02532025
-0.026401139
-0.027386735
-0.028287001
-0.029107584
-0.029839617
-0.030471898
-0.030996789
-0.031408945
-0.031703664
-0.031876894
-0.031925784
-0.031848935
-0.031646417
-0.031319754
-0.030871941
-0.030307434
-0.029632092
-0.028853076
-0.027978713
-0.027018339
-0.025982102
-0.024880765
-0.023725486
-0.022527588
-0.021298342
-0.020048754
-0.018789374
-0.017530116
-0.016280118
-0.015047614
-0.013839847
-0.012663008
-0.011522197
-0.010421415
-0.0093635671
-0.0083504841
-0.0073829379
-0.0064606636
-0.0055823288
-0.0047456125
-0.003946663
-0.0031820399
-0.0024401619
-0.0017367562
-0.00097333475
-0.00053842447
-0.017633079
-0.01859104
-0.019590074
-0.02065488
-0.021685684
-0.022644796
-0.023539417
-0.024373357
-0.025138665
-0.025825287
-0.026425842
-0.026934661
-0.027346473
-0.02765642
-0.027860526
-0.027955931
-0.027940946
-0.027815081
-0.027579102
-0.027235064
-0.026786307
-0.026237413
-0.025594134
-0.024863282
-0.024052605
-0.023170625
-0.022226469
-0.021229677
-0.020190011
-0.019117254
-0.018021026
-0.016910606
-0.015794775
-0.01468167
-0.013578675
-0.012492323
-0.011428232
-0.010391055
-0.0093844548
-0.0084110882
-0.0074725967
-0.0065696016
-0.0057016628
-0.004867336
-0.0040636999
-0.0032880593
-0.002530371
-0.001804962
-0.0010220783
-0.00054251402
-0.013664937
-0.014566809
-0.015505866
-0.016502016
-0.017475996
-0.018397372
-0.0192713
-0.02010028
-0.02087736
-0.021593734
-0.022242559
-0.022818228
-0.023315333
-0.023728679
-0.024053667
-0.024286514
-0.024424317
-0.024465111
-0.024407948
-0.024252962
-0.024001399
-0.023655628
-0.023219109
-0.022696347
-0.022092813
-0.021414835
-0.020669476
-0.019864386
-0.019007646
-0.018107596
-0.017172666
-0.016211209
-0.015231342
-0.014240799
-0.013246801
-0.01225594
-0.011274089
-0.010306322
-0.0093568619
-0.0084290296
-0.0075252105
-0.0066468231
-0.0057942621
-0.0049669335
-0.0041628248
-0.0033800235
-0.0026098378
-0.0018658738
-0.0010646912
-0.00054944086
-0.010178418
-0.011023635
-0.011902115
-0.012829658
-0.013744098
-0.014621203
-0.015464589
-0.016275804
-0.017048896
-0.017776312
-0.018451908
-0.019070393
-0.019626524
-0.020115113
-0.020531335
-0.020870916
-0.021130203
-0.021306236
-0.021396831
-0.021400665
-0.021317331
-0.021147378
-0.020892325
-0.020554652
-0.020137765
-0.019645945
-0.019084258
-0.018458463
-0.017774889
-0.017040303
-0.016261765
-0.01544648
-0.014601654
-0.013734351
-0.012851354
-0.011959046
-0.011063296
-0.010169365
-0.0092818213
-0.0084044709
-0.0075402943
-0.0066913919
-0.005858909
-0.0050430477
-0.0042426623
-0.0034566354
-0.0026774976
-0.0019186276
-0.0011013898
-0.0005573577
-0.007135015
-0.0079257046
-0.0087457573
-0.0096074313
-0.010462811
-0.01129294
-0.012100246
-0.012885567
-0.013643891
-0.014368857
-0.01505508
-0.015697735
-0.016291931
-0.016832722
-0.01731534
-0.017735351
-0.018088723
-0.018371897
-0.01858187
-0.018716285
-0.018773498
-0.018752639
-0.018653651
-0.018477315
-0.018225251
-0.017899904
-0.017504504
-0.017043007
-0.016520014
-0.015940681
-0.015310608
-0.014635713
-0.013922114
-0.013175992
-0.012403468
-0.011610479
-0.010802654
-0.009985213
-0.0091628607
-0.0083396987
-0.0075191394
-0.0067038301
-0.0058955603
-0.0050952496
-0.0043025574
-0.0035171477
-0.0027326833
-0.0019626281
-0.0011322921
-0.00056485586
-0.0045018498
-0.005241744
-0.0060072498
-0.0068075083
-0.0076064776
-0.0083896685
-0.0091585774
-0.0099134868
-0.01065023
-0.011363533
-0.012048763
-0.012701623
-0.013317676
-0.013892354
-0.01442113
-0.014899643
-0.015323757
-0.015689622
-0.015993757
-0.016233127
-0.01640522
-0.016508118
-0.016540545
-0.016501919
-0.016392379
-0.016212799
-0.015964784
-0.015650649
-0.015273377
-0.014836561
-0.014344331
-0.013801265
-0.013212286
-0.012582558
-0.011917369
-0.01122202
-0.010501705
-0.0097613977
-0.009005745
-0.0082389599
-0.0074647208
-0.0066860775
-0.0059053412
-0.0051240524
-0.0043425965
-0.0035613802
-0.0027751231
-0.0019975452
-0.0011574239
-0.0005710344
-0.00225312
-0.0029475829
-0.0036640775
-0.0044090924
-0.0051564076
-0.0058952656
-0.0066264117
-0.0073496828
-0.0080616407
-0.0087579679
-0.0094347287
-0.010088152
-0.01071429
-0.01130901
-0.01186813
-0.012387508
-0.012863087
-0.013290953
-0.0136674
-0.013989004
-0.014252695
-0.014455824
-0.014596227
-0.014672281
-0.014682949
-0.01462782
-0.01450713
-0.014321767
-0.014073265
-0.013763778
-0.013396041
-0.012973313
-0.012499309
-0.011978112
-0.011414083
-0.010811763
-0.010175763
-0.009510656
-0.0088208653
-0.0081105531
-0.0073835087
-0.0066430409
-0.005891855
-0.0051320025
-0.0043645009
-0.0035904355
-0.0028055033
-0.0020237492
-0.0011771203
-0.00057559335
-0.00036380979
-0.0010183002
-0.0016916422
-0.0023879399
-0.0030890419
-0.0037873024
-0.0044828603
-0.0051751809
-0.0058614313
-0.0065381057
-0.0072018839
-0.0078494824
-0.0084774184
-0.0090820046
-0.0096594387
-0.010205867
-0.010717424
-0.011190272
-0.011620661
-0.012004986
-0.012339855
-0.012622151
-0.012849096
-0.013018308
-0.013127864
-0.013176345
-0.013162876
-0.013087161
-0.012949492
-0.012750761
-0.012492445
-0.01217658
-0.011805718
-0.011382875
-0.010911459
-0.010395191
-0.0098380119
-0.0092439854
-0.0086171888
-0.0079616021
-0.0072809914
-0.0065787934
-0.0058579829
-0.005121008
-0.0043694141
-0.0036048817
-0.0028239909
-0.0020411124
-0.001191133
-0.00057809637
0.0011627014
0.00054076999
-9.7058576e-05
-0.00075313758
-0.0014157198
-0.0020795984
-0.0027444176
-0.0034093441
-0.0040720307
-0.0047296289
-0.0053793284
-0.0060182635
-0.0066433618
-0.0072513398
-0.0078387597
-0.0084020717
-0.0089376427
-0.0094417896
-0.0099108238
-0.010341101
-0.010729078
-0.011071366
-0.011364793
-0.011606466
-0.011793825
-0.011924706
-0.011997388
-0.012010642
-0.011963762
-0.011856596
-0.011689554
-0.01146361
-0.011180289
-0.010841633
-0.010450159
-0.010008795
-0.0095208099
-0.0089897239
-0.0084192122
-0.0078129971
-0.0071747316
-0.0065078805
-0.0058155827
-0.005100576
-0.004364826
-0.0036105087
-0.0028349726
-0.0020528658
-0.0012017361
-0.00057971213
0.0023687804
0.0017736591
0.0011649217
0.00054183116
-8.8859381e-05
-0.00072389025
-0.001362524
-0.0020036793
-0.0026453762
-0.0032852786
-0.0039209809
-0.0045499545
-0.005169465
-0.0057765692
-0.0063681466
-0.0069409256
-0.0074915049
-0.0080163787
-0.0085119713
-0.0089746773
-0.009400908