/*--------------------------------*- C++ -*----------------------------------*\
  =========                 |
  \\      /  F ield         | OpenFOAM: The Open Source CFD Toolbox
   \\    /   O peration     | Website:  https://openfoam.org
    \\  /    A nd           | Version:  6
     \\/     M anipulation  |
\*---------------------------------------------------------------------------*/
FoamFile
{
    version     2.0;
    format      ascii;
    class       volSymmTensorField;
    location    "263";
    object      UPrime2Mean;
}
// * * * * * * * * * * * * * * * * * * * * * * * * * * * * * * * * * * * * * //

dimensions      [0 2 -2 0 0 0 0];

internalField   nonuniform List<symmTensor> 
9200
(
(7.5450976e-05 -5.8565983e-05 2.7319615e-22 4.6999044e-05 -1.4602547e-22 4.4233239e-39)
(0.00046559481 -0.00037270697 7.017101e-22 0.00029949873 -5.2362661e-22 4.812277e-39)
(0.00094237256 -0.00073056023 8.4434591e-23 0.00056969408 -6.3985148e-23 2.6382913e-39)
(0.0014872648 -0.0010765301 -1.0592234e-21 0.00078808379 7.4427416e-22 5.2604068e-39)
(0.0020258348 -0.001384626 5.1317619e-23 0.00096295119 -4.2250834e-23 7.7118432e-40)
(0.0025208826 -0.0016409717 4.4763167e-22 0.0010940503 -2.9658205e-22 1.2176641e-40)
(0.0029464847 -0.0018405973 -9.7519853e-23 0.0011858237 6.7117541e-23 3.4946201e-40)
(0.0032815773 -0.0019836699 8.8598845e-23 0.0012457722 -5.9296408e-23 2.3536279e-40)
(0.0035113858 -0.0020728408 4.3467768e-22 0.0012811164 -2.6320829e-22 6.7160867e-40)
(0.0036279961 -0.0021120712 3.3867223e-23 0.0012980028 -2.0611706e-23 1.9167572e-42)
(0.0036304493 -0.002106084 -4.7048817e-22 0.0013015119 2.8824574e-22 3.6091592e-40)
(0.0035247208 -0.0020600227 3.9479118e-22 0.0012957165 -2.5075825e-22 4.9838284e-41)
(0.0033232824 -0.0019792357 -7.0481116e-22 0.0012837732 4.7288905e-22 7.731009e-40)
(0.0030440782 -0.0018691443 -3.5848196e-22 0.0012680504 2.4521579e-22 4.9913388e-41)
(0.002708941 -0.0017351589 9.3173308e-23 0.0012502684 -6.8681233e-23 6.3430538e-42)
(0.00234159 -0.0015826031 -3.5223818e-22 0.0012316348 2.7388724e-22 6.7035547e-41)
(0.0019653693 -0.0014166469 3.1040226e-22 0.0012130375 -2.6145863e-22 8.114964e-41)
(0.0016009739 -0.0012423301 2.3216487e-22 0.0011956805 -2.0468104e-22 3.2814533e-40)
(0.0012660318 -0.001064331 -7.5942981e-24 0.0011811513 1.649738e-23 6.0325572e-41)
(0.00098004852 -0.00088588912 -4.0763408e-24 0.0011577013 1.4523212e-23 7.4776314e-41)
(9.9596598e-05 -6.6576094e-05 2.8459363e-23 4.5701231e-05 -1.0890932e-23 7.7830809e-41)
(0.00059406387 -0.00041173255 7.4317091e-22 0.00028624395 -4.834139e-22 5.132869e-39)
(0.0011823755 -0.00079516521 -2.4025756e-22 0.0005378275 1.6118673e-22 2.7879234e-39)
(0.001814591 -0.0011503809 -1.9017982e-21 0.00073754595 1.1879835e-21 1.2173199e-38)
(0.0024041916 -0.0014531481 -6.6410522e-23 0.00089409553 4.2003899e-23 1.5357415e-40)
(0.0029079423 -0.0016912192 1.4742029e-21 0.0010087767 -8.687928e-22 4.0289391e-39)
(0.003298924 -0.0018624146 -6.0735457e-22 0.001087384 3.5421899e-22 1.3852662e-40)
(0.0035597117 -0.0019700988 -1.8359538e-22 0.001138065 1.0615429e-22 4.9537535e-41)
(0.0036828558 -0.0020199348 6.9919504e-22 0.0011682563 -4.0671692e-22 3.78857e-40)
(0.0036706628 -0.0020185207 -8.5020613e-22 0.0011840325 5.0271453e-22 4.3544034e-40)
(0.0035344016 -0.0019727673 -6.0497359e-22 0.0011901563 3.6669071e-22 5.3700985e-40)
(0.0032930831 -0.0018895374 1.3112787e-21 0.0011901758 -8.2674851e-22 2.7318062e-39)
(0.0029715869 -0.0017754626 6.1271168e-22 0.0011865531 -4.1122937e-22 1.9230646e-40)
(0.0025981724 -0.0016368813 -9.6950851e-22 0.0011808186 6.9483249e-22 9.4793313e-40)
(0.0022016596 -0.0014798351 1.7487999e-22 0.0011737215 -1.3512884e-22 7.8840929e-41)
(0.0018086716 -0.0013100767 -3.8992711e-22 0.0011653616 3.376818e-22 2.1087508e-40)
(0.0014412914 -0.0011330689 -1.6146399e-22 0.0011553402 1.6480915e-22 6.6214519e-41)
(0.0011153958 -0.0009538753 4.9955236e-22 0.0011429617 -5.5471433e-22 1.0712576e-39)
(0.00084068513 -0.00077658608 2.3798966e-22 0.0011261424 -3.1485415e-22 2.0424904e-40)
(0.00062383518 -0.00060525465 -1.0339576e-22 0.001094242 1.2798252e-22 1.5285718e-39)
(0.00012687728 -7.2275174e-05 -2.3937465e-22 4.2094193e-05 1.0189262e-22 2.0001243e-39)
(0.0007311761 -0.00043453604 -3.9938094e-22 0.00025892765 2.2187196e-22 2.0849895e-39)
(0.0014292351 -0.0008264918 -4.5498354e-22 0.00048072484 2.6509645e-22 5.2116307e-39)
(0.0021353814 -0.0011750421 1.5235245e-23 0.00065421305 -8.3701154e-24 5.6585408e-43)
(0.0027529029 -0.0014590717 1.6357706e-23 0.00078823551 -7.7782588e-24 3.7446616e-39)
(0.0032356842 -0.0016693157 5.1651632e-22 0.00088558577 -2.7516577e-22 1.0472762e-39)
(0.0035604097 -0.0018071445 5.0519827e-23 0.00095290059 -2.5171243e-23 4.3350633e-40)
(0.0037186139 -0.0018792542 -8.8090871e-22 0.000998268 4.7230785e-22 2.7723398e-40)
(0.0037154182 -0.0018940093 1.0453989e-21 0.0010286244 -5.7445768e-22 5.2367196e-40)
(0.003567726 -0.0018600153 3.4498232e-22 0.001049295 -1.9889567e-22 5.7370814e-40)
(0.0033017343 -0.0017855473 -9.525419e-22 0.0010641133 5.7348107e-22 1.1868967e-39)
(0.0029498714 -0.0016783184 -2.999318e-22 0.0010755777 1.9341843e-22 3.8748224e-40)
(0.002547216 -0.0015454717 1.0812256e-22 0.0010850393 -7.5002829e-23 1.0488031e-39)
(0.0021277803 -0.0013936894 2.614637e-22 0.0010929098 -2.0152531e-22 1.5123981e-40)
(0.0017212061 -0.0012293143 -9.2100218e-23 0.0010988736 7.9248503e-23 1.1548009e-40)
(0.0013503709 -0.0010584151 2.1459249e-22 0.0011020981 -2.1319924e-22 9.1879866e-41)
(0.0010301976 -0.00088676215 -1.482181e-22 0.0011014422 1.7336392e-22 3.537987e-41)
(0.00076768944 -0.00071967579 -3.0413168e-22 0.0010955854 4.1769143e-22 8.5772786e-40)
(0.00056312935 -0.00056164241 -1.0936255e-23 0.0010827896 1.1643309e-23 7.6949504e-40)
(0.0004125831 -0.00041682876 1.0615375e-22 0.0010593745 -2.2753129e-22 8.8559108e-41)
(0.00015638006 -7.4822111e-05 -1.9017072e-22 3.6498829e-05 7.0074764e-23 9.9337699e-40)
(0.00086991138 -0.00043730699 2.9229168e-22 0.00022037445 -1.4337683e-22 1.8562892e-40)
(0.0016681275 -0.00081915848 2.5927437e-22 0.00040476223 -1.2783153e-22 2.1463385e-40)
(0.002427812 -0.0011459502 5.654479e-22 0.00054788605 -2.6989969e-22 2.3145573e-39)
(0.0030455565 -0.0014008446 4.9810827e-22 0.00065832733 -2.3651533e-22 1.0296995e-39)
(0.0034772599 -0.0015784725 -8.776152e-22 0.00073994293 4.1682709e-22 7.8685276e-40)
(0.0037090244 -0.0016837596 -4.9179542e-22 0.00079943182 2.3771484e-22 2.2401582e-40)
(0.0037469542 -0.0017260114 0 0.00084400392 0 0)
(0.0036131342 -0.0017151889 5.3896683e-22 0.00087937107 -2.9233191e-22 2.8849307e-39)
(0.0033413604 -0.0016606624 -2.3477883e-22 0.00090950268 1.3816307e-22 1.0928498e-39)
(0.0029723569 -0.0015709061 -1.3806956e-21 0.00093681914 8.2222251e-22 9.7178868e-40)
(0.0025487808 -0.0014535647 -1.770782e-22 0.00096241248 1.1140423e-22 1.9534505e-40)
(0.0021104665 -0.0013156963 6.8444125e-22 0.00098629633 -5.082557e-22 1.3168391e-39)
(0.0016905623 -0.0011640179 3.8052297e-23 0.001007683 -2.4900595e-23 5.4360987e-40)
(0.0013131093 -0.0010050229 -1.0645359e-23 0.001025275 1.0390756e-23 3.8306213e-43)
(0.00099229602 -0.00084492327 1.1483843e-22 0.0010375647 -1.3237089e-22 6.7427864e-41)
(0.00073325318 -0.00068943832 3.8677834e-25 0.0010431004 2.6359523e-24 7.8708247e-41)
(0.00053394799 -0.00054350721 -2.0496374e-22 0.0010406156 3.4354387e-22 2.0680732e-40)
(0.00038750703 -0.00041098436 -1.1439211e-22 0.0010295006 2.3920692e-22 1.4378079e-40)
(0.00028469452 -0.00029470665 5.8411694e-23 0.001011194 -1.7597569e-22 8.9658647e-40)
(0.00018675837 -7.3497571e-05 1.4378889e-22 2.9439626e-05 -4.5814753e-23 3.9078693e-40)
(0.0010015386 -0.00041756324 5.9921417e-22 0.00017452177 -2.3900426e-22 3.520915e-39)
(0.0018822669 -0.00077086653 4.7366703e-22 0.00031792436 -1.9511803e-22 2.2324591e-40)
(0.0026695148 -0.0010632963 5.2669283e-22 0.00042987328 -2.1514123e-22 1.2385766e-39)
(0.0032583824 -0.0012829819 -8.1183335e-22 0.00051818835 3.3531283e-22 1.9517966e-39)
(0.0036129874 -0.0014285248 3.1557286e-23 0.00058709558 -1.015906e-23 1.8567849e-40)
(0.0037348856 -0.0015073921 4.666484e-23 0.00064249994 -2.0304582e-23 1.5648568e-42)
(0.0036492666 -0.0015298832 6.6528955e-22 0.00069001275 -3.093675e-22 6.9815987e-40)
(0.0033972207 -0.001505845 9.0056548e-23 0.00073357719 -4.4451832e-23 6.3012824e-42)
(0.0030284818 -0.001443935 -2.4246885e-22 0.00077541463 1.3711754e-22 3.775557e-40)
(0.0025944425 -0.0013517849 7.9051846e-22 0.00081627154 -4.8945966e-22 2.6338821e-39)
(0.0021420306 -0.0012364163 -5.7663858e-22 0.00085569445 3.7936233e-22 2.280595e-40)
(0.0017091314 -0.0011046316 -1.0896762e-21 0.00089235042 8.4931091e-22 1.6174535e-39)
(0.0013220965 -0.00096318812 -3.6168086e-23 0.00092438959 3.320563e-23 3.4192287e-42)
(0.00099544683 -0.00081868776 3.9092349e-22 0.00094982455 -4.362437e-22 1.3079386e-39)
(0.00073339547 -0.00067724509 0 0.00096689397 0 0)
(0.00053249983 -0.00054406772 4.9222433e-23 0.00097432854 -7.0891993e-23 3.402164e-41)
(0.00038466485 -0.00042311202 -2.4907282e-23 0.0009714078 5.4392457e-23 5.0597927e-41)
(0.00027972389 -0.00031693294 -2.5181797e-23 0.00095862228 5.4986439e-23 1.3318931e-41)
(0.00020735874 -0.00022665996 1.2152086e-23 0.00093999254 -5.1426589e-23 9.0959051e-41)
(0.00021636756 -6.7869166e-05 3.1449958e-22 2.1651603e-05 -8.1031728e-23 1.5803584e-39)
(0.0011168153 -0.00037493908 3.0985472e-23 0.00012622299 -1.0171431e-23 2.9254278e-42)
(0.0020555833 -0.00068353057 -8.8987009e-23 0.00022923774 3.0050773e-23 1.2953833e-41)
(0.0028416279 -0.00093302042 9.2201062e-23 0.00031206072 -2.9668037e-23 2.5592846e-40)
(0.0033751146 -0.0011163931 -5.5956407e-22 0.0003812586 1.9619541e-22 4.8022436e-40)
(0.0036349155 -0.0012351684 -2.6962963e-22 0.00044068156 9.8108935e-23 4.34386e-41)
(0.003642903 -0.0012973268 1.9200005e-22 0.00049477111 -5.8878849e-23 1.3676002e-39)
(0.0034453656 -0.0013119456 -6.9616737e-24 0.00054712973 7.8819381e-24 1.0698044e-40)
(0.0031011386 -0.0012869278 -4.5705653e-22 0.00059970364 2.2678382e-22 1.13163e-39)
(0.0026716342 -0.0012290413 7.944179e-22 0.00065285032 -4.1250424e-22 3.3439111e-40)
(0.0022126743 -0.0011445739 -2.1455108e-23 0.000705613 3.0113167e-23 5.8763952e-40)
(0.0017687878 -0.0010399162 -6.333571e-22 0.00075605966 4.5968218e-22 1.6229772e-39)
(0.0013704152 -0.00092180265 0 0.00080170295 0 0)
(0.0010339454 -0.00079713223 1.5518817e-22 0.00083996749 -1.7563548e-22 8.6990115e-40)
(0.00076392855 -0.00067247591 7.9613259e-24 0.00086863749 -1.6605922e-23 4.7599699e-41)
(0.00055647025 -0.00055348896 -1.8907279e-22 0.00088621369 2.9668428e-22 1.0118289e-39)
(0.00040281265 -0.00044443619 -4.2833448e-23 0.00089208184 7.6606547e-23 2.1187157e-41)
(0.0002923716 -0.00034798225 -1.3226591e-23 0.000886418 3.5809962e-23 3.3942208e-41)
(0.00021476551 -0.00026532104 -1.7256439e-23 0.00087070624 4.831437e-23 1.3231417e-41)
(0.00016085451 -0.00019634194 3.123242e-23 0.00084983659 -1.1840264e-22 1.2632716e-40)
(0.00024344894 -5.7899559e-05 1.2122374e-22 1.4007681e-05 -2.3325048e-23 2.5027584e-40)
(0.0012071795 -0.00031145707 -8.7096405e-22 8.0640196e-05 2.1916782e-22 5.4424806e-39)
(0.0021749125 -0.00056323984 -7.6612869e-23 0.00014754357 2.1764448e-23 5.0818631e-40)
(0.0029314716 -0.00076603237 -2.3160013e-22 0.00020525033 6.8281144e-23 2.5559213e-39)
(0.0033892228 -0.00091653305 -1.7535429e-22 0.00025876403 4.8658371e-23 3.5385314e-41)
(0.0035473436 -0.001017003 -9.9335956e-22 0.00031104888 3.0771371e-22 4.6906962e-40)
(0.0034503856 -0.0010732661 -4.8760137e-22 0.00036484179 1.7164089e-22 3.7776536e-40)
(0.0031644526 -0.0010909444 9.454591e-22 0.00042175503 -3.5585174e-22 3.0624738e-40)
(0.0027616824 -0.0010746347 1.6217521e-22 0.00048183951 -8.3302315e-23 3.8740768e-40)
(0.0023087754 -0.0010287402 -2.0852222e-22 0.00054370318 9.4555578e-23 1.3265015e-40)
(0.0018593382 -0.00095835171 9.7436639e-23 0.00060482915 -3.5940944e-23 4.9711515e-40)
(0.001450268 -0.00086960295 -1.8954912e-23 0.00066203201 2.4779304e-23 1.2600559e-40)
(0.0011018326 -0.00076941114 0 0.0007120194 0 0)
(0.00082045262 -0.00066477345 1.0461052e-22 0.0007519546 -1.0833858e-22 3.0659166e-41)
(0.00060283915 -0.00056193626 -2.2322712e-22 0.00077989953 2.8999349e-22 4.1692518e-40)
(0.00044021823 -0.00046573912 -7.260265e-23 0.00079505213 1.1055026e-22 3.6035154e-41)
(0.00032178441 -0.00037930022 1.261581e-22 0.00079771797 -2.5051746e-22 4.9741303e-40)
(0.00023702675 -0.00030407492 -2.7467723e-23 0.00078902518 3.6700093e-23 1.0663306e-40)
(0.0001769075 -0.00024026046 -1.593033e-24 0.0007711637 -3.290525e-24 1.1960545e-41)
(0.00013413727 -0.00018715254 2.8855964e-23 0.00074881364 -8.4921771e-23 1.0961493e-41)
(0.00026632702 -4.3983149e-05 8.8142329e-23 7.4016233e-06 -1.1563381e-23 1.5672972e-40)
(0.0012658411 -0.00023135868 -8.0875038e-22 4.2516587e-05 1.4570144e-22 2.4967834e-39)
(0.0022316159 -0.00041945203 -6.3179436e-22 8.0263994e-05 1.2526076e-22 2.9873197e-39)
(0.0029339632 -0.00057653271 9.0620668e-22 0.00011773756 -1.8904738e-22 7.3315801e-40)
(0.0033041168 -0.00070082269 6.8570559e-22 0.00015845283 -1.5394701e-22 1.5316252e-40)
(0.0033648114 -0.00079239528 -5.0392143e-22 0.00020447143 1.1094536e-22 1.5868906e-39)
(0.0031823647 -0.00085226355 1.639181e-22 0.00025712353 -6.2162745e-23 6.7169974e-40)
(0.0028382714 -0.00088097465 9.6419118e-22 0.0003164378 -3.403755e-22 7.5746497e-40)
(0.0024114901 -0.00087931419 4.2357342e-22 0.00038089149 -1.6578123e-22 9.6013026e-41)
(0.0019673046 -0.00084959766 -4.1721825e-22 0.00044757943 2.1170325e-22 2.4725661e-40)
(0.0015519135 -0.0007962828 -5.6682055e-22 0.00051266607 3.3558622e-22 2.9718905e-40)
(0.0011919822 -0.00072566419 -1.54825e-23 0.00057204322 1.1109596e-23 3.0992154e-43)
(0.00089773132 -0.00064490872 1.636436e-22 0.00062204881 -1.420542e-22 4.8204261e-41)
(0.00066777052 -0.00056088237 -5.9174517e-24 0.00066005632 1.8604624e-23 7.2616362e-41)
(0.00049405977 -0.00047919525 -6.4759075e-24 0.00068479532 3.0289647e-23 1.9653753e-40)
(0.00036593079 -0.00040370483 4.9640302e-24 0.0006963618 -3.958697e-23 3.5503542e-40)
(0.0002727568 -0.00033648905 5.8133889e-23 0.00069594906 -1.1407528e-22 1.0448623e-40)
(0.00020536308 -0.00027816584 -3.3225057e-23 0.00068540609 9.6025129e-23 2.7158453e-40)
(0.00015648365 -0.00022844549 -8.4882611e-23 0.00066721789 2.3289569e-22 5.2797317e-40)
(0.00012057747 -0.00018653122 2.8152338e-23 0.00064525473 -6.8151136e-23 1.1965907e-41)
(0.00028368118 -2.6915802e-05 -2.2955308e-22 2.6207803e-06 1.9133748e-23 4.6835532e-40)
(0.0012887122 -0.00014057248 -1.8167047e-22 1.5522572e-05 1.9452766e-23 5.0556522e-40)
(0.0022224661 -0.00026369654 1.3894711e-21 3.2468425e-05 -1.7602427e-22 6.1744639e-39)
(0.0028519037 -0.00037997549 1.0369727e-21 5.4462851e-05 -1.4948935e-22 6.7621578e-40)
(0.0031320727 -0.00048617866 4.6585268e-22 8.4169103e-05 -7.2644242e-23 3.3178545e-40)
(0.0031092126 -0.00057718493 9.4073188e-23 0.00012333462 -1.9116944e-23 3.2125241e-42)
(0.0028672173 -0.00064724199 -8.8466353e-22 0.00017263236 1.9484459e-22 1.3872567e-39)
(0.0024964103 -0.00069120832 0 0.00023112211 0 0)
(0.0020756922 -0.00070642911 -5.4333555e-22 0.00029608849 2.3275912e-22 1.1482794e-39)
(0.0016635713 -0.00069389315 -9.3668382e-23 0.00036337572 6.0842062e-23 2.5982352e-40)
(0.0012961144 -0.00065804437 2.6703573e-22 0.00042812066 -1.5334581e-22 6.428341e-41)
(0.0009897831 -0.00060555063 2.8895471e-23 0.00048567612 -3.6313525e-23 1.4293154e-40)
(0.00074678975 -0.00054367717 -1.2789391e-22 0.00053243739 1.2386431e-22 1.6685006e-40)
(0.00056085094 -0.00047887658 -9.66277e-23 0.00056633949 1.2500801e-22 3.5620586e-40)
(0.00042194766 -0.00041595604 6.2091897e-23 0.00058694244 -6.2636543e-23 4.383899e-41)
(0.00031953366 -0.0003578708 8.6167186e-23 0.00059516834 -1.1016768e-22 4.0813392e-41)
(0.00024426824 -0.0003059713 -7.6959238e-23 0.00059283048 1.2616352e-22 3.8101761e-41)
(0.0001886734 -0.00026047495 -1.0345587e-22 0.00058212574 2.2004597e-22 4.4183564e-40)
(0.0001471419 -0.00022101438 7.879756e-24 0.00056544748 -1.7444417e-24 5.1697931e-41)
(0.00011555189 -0.00018694768 1.4160665e-23 0.00054562229 -4.6840743e-23 6.1097302e-41)
(0.00029450342 -7.76768e-06 -1.5146033e-22 2.3503231e-07 3.8598175e-24 2.2910998e-40)
(0.0012744528 -4.5967574e-05 6.4830593e-22 1.8158571e-06 -2.318614e-23 1.2710062e-39)
(0.0021496062 -0.00010821669 9.9100725e-22 6.4117842e-06 -6.0810382e-23 9.2164563e-39)
(0.0026952846 -0.00019134559 -1.1646027e-21 1.68624e-05 9.9912451e-23 2.5399254e-39)
(0.00289204 -0.00028736361 4.2189461e-22 3.6219399e-05 -4.5981015e-23 6.4444154e-41)
(0.0028060337 -0.00038362906 1.7405407e-22 6.6989148e-05 8.2889293e-25 2.343686e-39)
(0.0025322234 -0.00046683618 4.5703514e-23 0.00011013161 -9.1983431e-24 8.5360522e-43)
(0.0021626386 -0.00052661636 -6.5140344e-22 0.00016433728 1.4942649e-22 7.92955e-40)
(0.0017704041 -0.00055788138 -1.4808947e-23 0.00022602234 5.0854267e-24 1.2845042e-43)
(0.0014041713 -0.00056118531 2.4379156e-22 0.00029003948 -1.2577328e-22 3.0201039e-40)
(0.0010895979 -0.00054137575 1.919763e-23 0.00035082976 -1.9375075e-23 4.3102517e-41)
(0.00083474334 -0.00050544537 -8.7818339e-23 0.00040359671 2.3843916e-23 5.5762228e-40)
(0.00063654585 -0.00046049472 -1.9627178e-22 0.00044512537 1.5856085e-22 6.3586194e-41)
(0.00048645314 -0.00041236234 -1.2364559e-24 0.00047406672 1.5110857e-23 7.2621353e-41)
(0.0003743752 -0.00036506869 6.6691679e-23 0.00049073428 -8.6673332e-23 7.1243934e-41)
(0.00029093434 -0.00032089675 4.4479166e-23 0.00049660627 -6.9828935e-23 6.9006625e-41)
(0.00022842314 -0.00028080852 1.0251164e-23 0.0004937523 -3.3012244e-23 1.1148698e-40)
(0.00018097976 -0.0002449471 -7.0936928e-23 0.00048435957 9.9341962e-23 9.0143073e-41)
(0.00014437584 -0.00021307976 -1.4349818e-23 0.00047046897 -9.2058754e-24 3.8226561e-40)
(0.00011557115 -0.00018475807 3.9434543e-23 0.0004538814 -1.2019482e-22 6.3148716e-40)
(1.9599451e-06 -2.4494621e-07 1.9583975e-23 2.9913343e-07 -3.9184e-24 2.23879e-40)
(9.2377442e-06 -3.8665868e-06 -2.7946042e-23 1.9862105e-06 7.7435053e-24 2.1552578e-40)
(2.0691972e-05 -8.9356037e-06 6.2071362e-23 3.959834e-06 -2.3266678e-23 1.2380354e-39)
(6.6339969e-05 -1.885853e-05 1.7330669e-22 5.6801298e-06 -3.698805e-23 4.163332e-39)
(0.00014560141 -3.11162e-05 -1.2386211e-22 7.2279629e-06 2.1125622e-23 1.0828429e-39)
(0.00026025574 -4.4846471e-05 1.5618189e-22 8.6047881e-06 -2.1238227e-23 1.196453e-39)
(0.00041407749 -5.9585158e-05 -2.1463707e-22 9.8124449e-06 2.7323709e-23 1.3143646e-39)
(0.00060810706 -7.4867799e-05 -2.2147996e-22 1.0875716e-05 2.3232133e-23 1.3895503e-39)
(0.0008414799 -9.0317381e-05 2.7901175e-22 1.1821266e-05 -2.9048661e-23 1.4694872e-39)
(0.0011127041 -0.00010565609 -2.1684883e-22 1.2669845e-05 2.1281233e-23 7.4852899e-40)
(0.0014199029 -0.00012067475 -1.0796508e-23 1.3437192e-05 1.8082046e-25 8.698429e-42)
(0.0017608445 -0.00013521128 6.2710646e-23 1.4135351e-05 -6.701838e-24 2.7578545e-41)
(0.0021330493 -0.00014913795 -1.076955e-23 1.4773544e-05 5.2366079e-25 4.3665534e-42)
(0.0025338904 -0.00016235355 3.419597e-22 1.5359177e-05 -3.0816577e-23 1.3115874e-39)
(0.0029606542 -0.00017478098 3.8700775e-25 1.5899095e-05 6.4707547e-25 2.8302295e-42)
(0.003410602 -0.00018637197 -5.0569042e-22 1.6400844e-05 4.7444386e-23 2.6983872e-39)
(0.0038810518 -0.00019711118 9.4128696e-23 1.6872489e-05 -9.8948611e-24 5.7060091e-41)
(0.0043693903 -0.00020699765 2.2929454e-22 1.7319992e-05 -2.270493e-23 6.8621129e-40)
(0.0048730216 -0.00021607265 -3.7412369e-22 1.7749263e-05 3.9554622e-23 1.9453103e-39)
(0.0053889842 -0.00022461905 -2.0802033e-22 1.8156419e-05 2.3369089e-23 7.3035835e-40)
(2.2197868e-06 -1.0245876e-06 6.454131e-24 2.6323099e-06 -2.3887019e-24 2.2182338e-41)
(1.1776399e-05 -1.3249273e-05 -1.7698464e-22 1.7502637e-05 1.334411e-22 7.207849e-39)
(2.6427246e-05 -3.0081659e-05 3.5120061e-23 3.4884495e-05 -2.9038422e-23 6.5054811e-40)
(7.8056661e-05 -6.1057399e-05 1.8648904e-22 5.0042543e-05 -1.1462358e-22 3.4799272e-39)
(0.00016425643 -9.8773341e-05 2.5922028e-22 6.3652766e-05 -1.2470207e-22 3.9352216e-39)
(0.00028625187 -0.00014069667 3.1361775e-23 7.5708965e-05 -1.2594927e-23 3.6969012e-41)
(0.000447379 -0.00018544113 -8.3440504e-22 8.6230266e-05 2.896395e-22 1.9684132e-38)
(0.00064814943 -0.00023163314 -2.9481035e-23 9.5436454e-05 1.2237944e-23 5.7042616e-42)
(0.00088722465 -0.00027816534 4.7317231e-22 0.00010356187 -1.4443991e-22 3.3605549e-39)
(0.0011626798 -0.00032422143 -1.1432414e-22 0.0001107892 3.1661256e-23 1.8685991e-40)
(0.0014722095 -0.00036918477 -4.3475602e-22 0.00011725703 1.1949494e-22 2.073431e-39)
(0.001813148 -0.00041257535 9.1611593e-23 0.00012307065 -2.349948e-23 9.4401579e-41)
(0.0021825723 -0.00045401218 3.8709179e-22 0.00012830938 -8.693527e-23 2.223176e-39)
(0.0025773921 -0.00049318926 1.605372e-22 0.00013303515 -4.0045278e-23 2.5405455e-40)
(0.0029943947 -0.00052986682 3.2219541e-22 0.00013730324 -8.5958263e-23 7.3526453e-40)
(0.0034303046 -0.00056388388 -2.5524546e-22 0.000141173 6.439038e-23 6.2176694e-40)
(0.0038819352 -0.0005951746 -2.4474714e-22 0.00014470885 6.1088407e-23 6.8000838e-40)
(0.0043461281 -0.00062370945 2.4835266e-22 0.00014796225 -7.0309866e-23 3.9352914e-40)
(0.0048188461 -0.00064959666 2.279204e-22 0.00015099138 -6.2895106e-23 6.8740993e-40)
(0.0052953333 -0.00067392045 8.8942788e-23 0.00015378436 -2.3554301e-23 2.9177104e-40)
(2.8532528e-06 -2.6225797e-06 4.9659834e-24 7.0200561e-06 -2.4880406e-24 1.1682699e-41)
(1.7801174e-05 -2.7381081e-05 1.3442465e-22 4.6722131e-05 -1.4388094e-22 3.0718752e-39)
(3.978469e-05 -6.0511189e-05 -2.9425473e-23 9.3051992e-05 3.7923526e-23 1.6087977e-40)
(0.00010394311 -0.00011591607 -2.0262853e-22 0.00013343558 1.7066275e-22 3.8090836e-39)
(0.00020450617 -0.00018171865 7.474275e-23 0.00016957017 -6.2797538e-23 1.0808717e-40)
(0.00034158359 -0.00025382863 9.917123e-23 0.00020136079 -8.0655159e-23 5.7147427e-41)
(0.00051762711 -0.00032995576 -1.2338788e-22 0.00022885255 6.5505103e-23 3.3946713e-40)
(0.00073214814 -0.00040787575 -3.2327618e-22 0.0002526304 1.8883304e-22 6.7969412e-40)
(0.00098290088 -0.00048580971 1.4152681e-22 0.00027331694 -6.8901329e-23 1.8975527e-40)
(0.0012671184 -0.00056244037 3.0068971e-22 0.00029140139 -1.2531394e-22 1.0771522e-39)
(0.0015816612 -0.00063676324 8.4363079e-23 0.00030725684 -5.8272468e-23 4.0643635e-41)
(0.0019230211 -0.00070798679 3.6829004e-22 0.00032116558 -1.2273896e-22 1.9984052e-39)
(0.0022874141 -0.00077547114 3.131824e-23 0.00033333654 -1.1633035e-23 8.2908479e-42)
(0.0026708527 -0.00083868679 -5.4929457e-22 0.00034392614 1.8607618e-22 3.2141888e-39)
(0.0030691682 -0.00089719806 4.0792665e-23 0.00035306681 -2.6695462e-23 1.784971e-41)
(0.0034780714 -0.00095068456 -2.5757897e-22 0.00036089712 7.2072914e-23 1.2520469e-39)
(0.0038934419 -0.00099897987 -3.6496504e-22 0.00036756879 1.442486e-22 5.1590512e-40)
(0.0043111689 -0.0010419755 5.9416788e-22 0.00037323201 -2.3083286e-22 1.7116865e-39)
(0.004724787 -0.0010798065 3.1486398e-22 0.0003781338 -1.2953516e-22 3.4877993e-40)
(0.0051268398 -0.0011147964 6.2685391e-23 0.00038241251 -2.8308019e-23 7.491329e-42)
(4.2030292e-06 -5.4236663e-06 -7.4279086e-24 1.292635e-05 9.3483364e-24 1.7153369e-41)
(2.918598e-05 -4.86205e-05 -3.1150916e-22 8.6196912e-05 3.9393272e-22 1.0194597e-38)
(6.4590245e-05 -0.00010484524 -2.2616812e-23 0.00017152908 2.9065114e-23 1.3930207e-40)
(0.0001494897 -0.00018960141 5.2315875e-23 0.00024579247 -5.7911182e-23 8.8891733e-41)
(0.00027344033 -0.00028715937 -8.3799538e-24 0.00031191503 2.133203e-24 2.2939627e-41)
(0.00043490099 -0.00039196521 2.6663138e-22 0.00036953539 -1.9553339e-22 1.6744061e-39)
(0.00063495775 -0.00050081856 2.9508436e-22 0.00041870478 -1.9283101e-22 1.5212187e-39)
(0.00087163431 -0.00061072219 -8.9320814e-23 0.00046050036 4.3223369e-23 2.3965268e-40)
(0.0011413202 -0.0007193034 -3.2839222e-22 0.00049607617 1.7171856e-22 1.5242042e-39)
(0.0014399626 -0.00082478931 -6.6349163e-22 0.00052635267 3.5810643e-22 3.2337604e-39)
(0.0017631453 -0.00092580749 -1.4199276e-23 0.000552042 -7.8403073e-24 7.37678e-41)
(0.0021060824 -0.0010212582 8.4619838e-22 0.00057368746 -3.9465279e-22 5.2841783e-39)
(0.0024636919 -0.001110229 -3.4293128e-22 0.00059168958 1.3117327e-22 1.5614952e-39)
(0.0028306702 -0.0011919452 -2.2228827e-22 0.00060634427 9.7443727e-23 3.0833415e-40)
(0.003201497 -0.0012657417 -2.7245031e-23 0.00061788998 3.0032256e-23 6.652025e-41)
(0.0035705076 -0.0013310902 5.28615e-22 0.0006265602 -2.317339e-22 1.2654798e-39)
(0.0039323522 -0.0013876763 -3.0036911e-22 0.00063260458 1.5001192e-22 8.5517751e-41)
(0.0042818388 -0.0014353199 -6.898606e-22 0.00063634145 2.9031351e-22 2.7239826e-39)
(0.0046097395 -0.0014741982 4.6492209e-22 0.00063854838 -2.0194524e-22 1.3698977e-39)
(0.004905638 -0.0015080831 4.0080056e-22 0.0006400946 -1.6055674e-22 1.2735516e-39)
(6.7216876e-06 -9.6594046e-06 3.3359171e-23 1.9703781e-05 -3.2418881e-23 2.1951866e-40)
(4.8432614e-05 -7.835149e-05 1.0744578e-23 0.00013157122 -2.7211993e-24 9.9342653e-41)
(0.00010590331 -0.00016575882 -4.2993014e-22 0.0002613926 6.153331e-22 8.3666412e-39)
(0.00022178407 -0.00028551843 -2.4696086e-22 0.00037401343 2.622658e-22 2.5868611e-39)
(0.00037982009 -0.00041870948 1.6466098e-22 0.00047359165 -1.3111093e-22 1.5633136e-39)
(0.00057622044 -0.00055831193 2.0526176e-22 0.00055928426 -1.6538561e-22 7.3660854e-40)
(0.00081010805 -0.00070017066 -2.6698735e-22 0.00063113439 1.743902e-22 1.7233081e-39)
(0.001077448 -0.00084060469 -4.0741673e-22 0.00069080927 2.338754e-22 3.7816159e-39)
(0.0013727265 -0.00097674621 6.0454001e-22 0.00074011192 -3.6115308e-22 3.8812394e-39)
(0.0016900822 -0.0011064367 1.7300969e-22 0.00078051209 -7.0059791e-23 9.0321984e-40)
(0.0020233171 -0.0012279852 -5.4893365e-22 0.00081317633 3.6282848e-22 3.0160683e-40)
(0.002365894 -0.0013400223 2.4008396e-22 0.00083901611 -1.0922201e-22 6.9559389e-40)
(0.0027110367 -0.0014414063 0 0.0008587226 0 0)
(0.003051812 -0.001531159 2.3504418e-22 0.00087281364 -1.1454874e-22 2.7243698e-40)
(0.00338116 -0.0016084327 -1.7668458e-22 0.00088169765 8.3965728e-23 1.4550023e-40)
(0.0036920111 -0.0016725383 -2.7138936e-22 0.00088574354 1.3534469e-22 1.7691539e-40)
(0.0039779736 -0.0017230645 1.0074912e-22 0.00088530186 -8.1624139e-23 2.4832795e-40)
(0.0042333345 -0.0017598869 -8.1832662e-23 0.00088087107 4.870124e-23 9.0209775e-42)
(0.0044468713 -0.0017834205 3.9373101e-22 0.00087417164 -1.703216e-22 1.4740238e-39)
(0.0046050071 -0.0017987353 -3.1901793e-22 0.00086798678 1.558411e-22 8.6487689e-41)
(1.0933695e-05 -1.5403858e-05 3.1991526e-23 2.6711596e-05 -2.6897537e-23 1.7626476e-40)
(7.8369385e-05 -0.000116842 1.5445702e-22 0.00017827134 -2.0560794e-22 6.5943982e-40)
(0.00016931687 -0.00024356709 -2.0733603e-22 0.00035309229 2.7500447e-22 1.5696936e-39)
(0.00032829372 -0.00040357864 -3.4101486e-22 0.00050392257 3.8341785e-22 1.3157183e-39)
(0.00053215834 -0.00057535816 -1.0126782e-22 0.00063601206 1.4775975e-22 1.0381869e-39)
(0.00077408683 -0.00075031549 -3.0872236e-22 0.0007478983 2.7102914e-22 6.4618136e-40)
(0.0010504638 -0.00092328847 -1.4326655e-22 0.00083967415 8.8217089e-23 7.4601858e-40)
(0.0013545207 -0.0010900376 2.4866239e-22 0.00091369802 -1.4957453e-22 1.3761301e-39)
(0.001678231 -0.0012473539 5.9568854e-22 0.00097253628 -3.5502248e-22 4.7121885e-39)
(0.0020133662 -0.0013928399 1.8393449e-22 0.001018341 -1.1316807e-22 1.977033e-40)
(0.0023515026 -0.0015246424 -1.7477156e-22 0.0010528733 9.2806512e-23 3.1352564e-40)
(0.0026840465 -0.0016412897 -3.2202524e-23 0.0010775557 -7.1787009e-24 2.7301376e-40)
(0.0030024004 -0.0017415935 -8.3599061e-22 0.0010935095 4.5710905e-22 2.6019002e-39)
(0.0032981274 -0.0018245853 -2.5990416e-22 0.001101607 1.3582651e-22 2.6911823e-40)
(0.0035630673 -0.0018894799 4.3642423e-22 0.0011025429 -2.5178366e-22 1.2855368e-40)
(0.0037895338 -0.0019356909 -4.355799e-22 0.0010969042 2.3489675e-22 2.6684377e-40)
(0.0039712241 -0.0019629524 -1.5385151e-22 0.0010851498 7.5649219e-23 8.515639e-41)
(0.0041035722 -0.0019714477 3.4545563e-22 0.0010678368 -1.4584895e-22 1.3225908e-39)
(0.0041757793 -0.0019621861 5.2543955e-22 0.001047751 -2.6201052e-22 1.004164e-39)
(0.0041714473 -0.0019411162 6.3927429e-23 0.0010310537 -2.9839653e-23 1.9540022e-41)
(1.7397651e-05 -2.2578789e-05 -9.0224102e-23 3.336801e-05 7.325247e-23 1.0428688e-39)
(0.00012181731 -0.00016321734 -9.9843603e-23 0.00022196289 1.0128765e-22 8.312393e-40)
(0.00026011855 -0.00033606322 2.5416887e-22 0.00043752111 -3.2075515e-22 3.8462019e-40)
(0.0004754572 -0.00053986991 3.8702403e-22 0.000621984 -4.0059605e-22 1.7443875e-39)
(0.00073667552 -0.00075103019 5.0562844e-24 0.00078150256 -4.5499618e-24 3.4617435e-43)
(0.0010328866 -0.00095925864 -1.0520514e-21 0.00091403646 8.6737675e-22 1.0183949e-38)
(0.0013568104 -0.0011584089 -4.1353202e-22 0.0010199102 3.5324538e-22 1.4676854e-40)
(0.00169824 -0.0013439058 3.2072886e-22 0.0011023145 -2.1618423e-22 1.1173487e-39)
(0.0020461185 -0.0015124835 3.6857651e-22 0.0011647062 -2.4722672e-22 6.8361226e-40)
(0.0023895298 -0.0016618131 -3.6099007e-22 0.001210058 2.0097281e-22 1.8756468e-39)
(0.0027177257 -0.0017902063 -1.0650143e-21 0.0012408742 6.7083449e-22 2.7372473e-39)
(0.0030202736 -0.0018964494 7.0146794e-22 0.001259237 -4.2419564e-22 1.1254181e-39)
(0.0032873535 -0.0019797057 4.1765405e-22 0.0012668446 -2.176901e-22 1.3468271e-39)
(0.0035100663 -0.0020394539 -5.8048917e-22 0.0012650659 3.1968547e-22 1.1121713e-39)
(0.0036806873 -0.0020754479 2.556293e-22 0.0012550065 -1.4707271e-22 7.4763327e-41)
(0.0037929464 -0.0020877012 4.2485603e-22 0.001237563 -2.1844123e-22 8.2820799e-40)
(0.003843022 -0.0020765371 1.6218201e-22 0.0012133106 -9.106896e-23 2.8305368e-41)
(0.0038302529 -0.0020427626 -2.7829056e-22 0.0011826292 1.709402e-22 3.608349e-41)
(0.0037481204 -0.0019882391 -6.500427e-23 0.0011489267 2.1364811e-23 2.0497795e-40)
(0.0035793594 -0.0019190744 3.6584495e-22 0.0011226749 -2.1034161e-22 8.4014399e-41)
(2.6664376e-05 -3.0955402e-05 -2.6401749e-24 3.9156645e-05 -2.8857035e-24 1.9536139e-41)
(0.00018122096 -0.00021548689 -3.6405887e-22 0.00025879379 3.851299e-22 2.732824e-39)