/*--------------------------------*- C++ -*----------------------------------*\
  =========                 |
  \\      /  F ield         | OpenFOAM: The Open Source CFD Toolbox
   \\    /   O peration     | Website:  https://openfoam.org
    \\  /    A nd           | Version:  6
     \\/     M anipulation  |
\*---------------------------------------------------------------------------*/
FoamFile
{
    version     2.0;
    format      ascii;
    class       volVectorField;
    location    "203";
    object      UMean;
}
// * * * * * * * * * * * * * * * * * * * * * * * * * * * * * * * * * * * * * //

dimensions      [0 1 -1 0 0 0 0];

internalField   nonuniform List<vector> 
9200
(
(0.0017186995 0.00090026363 -6.0994563e-20)
(0.015934599 -0.0036960387 4.8407451e-20)
(0.04229416 -0.0084617467 -3.9920137e-20)
(0.078080022 -0.013186943 -6.3256946e-20)
(0.12140392 -0.017653698 1.9637656e-20)
(0.17100633 -0.021428257 3.4383545e-20)
(0.22578724 -0.024224237 -1.2858966e-20)
(0.28473041 -0.025900162 9.7281798e-21)
(0.34688609 -0.026401244 1.7920569e-20)
(0.41133964 -0.025736036 1.5839446e-21)
(0.47718833 -0.023965156 -2.2946917e-20)
(0.543533 -0.021190263 2.205036e-20)
(0.60948157 -0.017543073 -4.3030785e-20)
(0.67416224 -0.013174217 -2.2618414e-20)
(0.73674482 -0.0082414344 6.3205135e-21)
(0.79646724 -0.0028998759 -2.6969644e-20)
(0.85268054 0.0027208522 2.7102352e-20)
(0.90497051 0.0086627257 2.405112e-20)
(0.95297625 0.015054397 -2.5916473e-22)
(0.99405792 0.018576817 -1.5908429e-21)
(0.0061304034 -0.0019311918 -1.7571847e-20)
(0.0297514 -0.010758793 4.1590295e-20)
(0.066450369 -0.017552207 2.4216962e-20)
(0.11310086 -0.022727258 -1.2074855e-19)
(0.16750953 -0.026473483 -1.321528e-20)
(0.22815745 -0.02859149 7.6944447e-20)
(0.29367679 -0.028997743 -3.7236567e-20)
(0.36277194 -0.027739146 -8.8743469e-21)
(0.43420872 -0.024932806 3.631347e-20)
(0.50679176 -0.020746902 -4.5919092e-20)
(0.57935401 -0.01539286 -3.2390016e-20)
(0.6507645 -0.0091148916 7.6902182e-20)
(0.71994916 -0.0021781308 4.0851994e-20)
(0.7859199 0.0051430656 -7.2644671e-20)
(0.84780797 0.012575092 1.5627812e-20)
(0.90489569 0.019849764 -3.9261078e-20)
(0.95665556 0.026718111 -1.4878898e-20)
(1.0028471 0.033022855 7.5783158e-20)
(1.0433855 0.038359171 3.2447387e-20)
(1.0765429 0.039637884 -8.5276487e-20)
(0.011951007 -0.004667159 3.7525507e-20)
(0.047297126 -0.01726059 2.3197208e-21)
(0.096108216 -0.025332226 2.2715407e-20)
(0.15490306 -0.030045304 1.0196137e-21)
(0.22119383 -0.032081915 -4.1949494e-20)
(0.29317787 -0.03154134 1.9612279e-20)
(0.36918614 -0.028603296 1.3820123e-20)
(0.44761301 -0.023560734 -5.287923e-20)
(0.52692239 -0.016755406 6.0444757e-20)
(0.60564446 -0.0085604097 1.536937e-20)
(0.68238695 0.00062744223 -5.7838913e-20)
(0.75586412 0.010401288 -1.9548677e-20)
(0.82493485 0.020360705 9.3395517e-21)
(0.88864192 0.03012787 2.4952469e-20)
(0.94624578 0.039361307 -1.2062854e-20)
(0.99724605 0.047764603 2.9594036e-20)
(1.0413924 0.055100134 -2.1520654e-20)
(1.0787124 0.061235855 -7.4016382e-20)
(1.1093876 0.065909707 -2.4383722e-20)
(1.1326147 0.067262917 5.0752683e-20)
(0.019274012 -0.0070578884 2.4874931e-20)
(0.068682331 -0.022504843 5.2419244e-20)
(0.13124257 -0.030762145 2.053317e-20)
(0.20319493 -0.033863601 1.3749701e-20)
(0.28177637 -0.03307039 1.8184287e-20)
(0.36488521 -0.028849609 -4.9891991e-20)
(0.45053672 -0.021707924 -2.694014e-20)
(0.5368179 -0.01224085 0)
(0.62192238 -0.0010598551 1.5515323e-20)
(0.70417621 0.011227552 -6.7039558e-21)
(0.78207512 0.024029099 -1.0357108e-19)
(0.85433257 0.036787268 -1.6511807e-20)
(0.91992604 0.04900108 6.9060838e-20)
(0.9781321 0.060245105 4.7677437e-22)
(1.0285435 0.070183149 -1.6604252e-21)
(1.0710636 0.078574634 2.3129455e-20)
(1.1058813 0.085280768 -5.3996575e-21)
(1.1334443 0.090292643 -6.4210674e-20)
(1.1543404 0.09359033 -4.8219213e-20)
(1.1685744 0.094228375 7.1558708e-20)
(0.028122841 -0.0088208125 -3.8374698e-21)
(0.09379642 -0.025740945 -4.8021005e-21)
(0.17144755 -0.032770076 5.8095305e-20)
(0.25714683 -0.032923489 1.9425368e-20)
(0.34789718 -0.028123137 -3.3576952e-20)
(0.44130925 -0.019272942 1.2419725e-20)
(0.53510867 -0.007265457 2.7699766e-21)
(0.62713368 0.0069576691 3.5611936e-20)
(0.71540795 0.022492599 5.9735357e-21)
(0.79819842 0.038499726 -1.4198235e-20)
(0.87407327 0.054220461 6.3968102e-20)
(0.94195528 0.069001341 -6.1001662e-20)
(1.0011569 0.082316394 -1.3925439e-19)
(1.0513887 0.093781341 -5.8665621e-21)
(1.0927392 0.10315747 8.7189909e-20)
(1.1256264 0.11034464 0)
(1.1507303 0.1153699 1.0724243e-20)
(1.1689221 0.11839008 -1.6049176e-20)
(1.1811491 0.11958995 -9.1201228e-21)
(1.1879884 0.11858022 2.1605563e-20)
(0.038430813 -0.0096511199 -5.1256301e-21)
(0.12227742 -0.026207381 4.450493e-21)
(0.21592818 -0.030336813 -8.9892628e-21)
(0.31543195 -0.026116968 2.9049794e-20)
(0.4176347 -0.016195111 -3.0685562e-20)
(0.51991603 -0.0019689472 -1.7658381e-20)
(0.61979717 0.015243909 3.8200798e-20)
(0.71499583 0.034142561 4.7682582e-21)
(0.80353814 0.053548255 -2.6194875e-20)
(0.88384027 0.072438252 7.3395266e-20)
(0.95477006 0.089964861 2.7608054e-22)
(1.0156819 0.1054765 -8.4587006e-20)
(1.0664155 0.1185297 0)
(1.1072558 0.12888611 4.1274363e-20)
(1.1388606 0.13649466 5.7114191e-21)
(1.1621652 0.14146154 -8.061382e-20)
(1.1782777 0.14401591 -2.0378239e-20)
(1.1883827 0.1444875 -1.2874317e-20)
(1.1936353 0.14321879 -1.5255065e-20)
(1.1948923 0.14015159 4.1796559e-20)
(0.050028203 -0.0092427309 -1.7307832e-20)
(0.15349629 -0.023190827 -3.1414046e-21)
(0.26351032 -0.022585765 3.068627e-20)
(0.37628656 -0.01259775 3.7663111e-20)
(0.48863728 0.0033705369 -2.0508057e-20)
(0.59782591 0.023400164 -7.2062809e-20)
(0.70132191 0.045747878 -2.9526387e-20)
(0.79691827 0.068788636 8.2451572e-20)
(0.88287139 0.091139537 9.2874831e-21)
(0.95798661 0.11169574 -2.5868263e-20)
(1.0216566 0.12964131 1.4074461e-20)
(1.0738509 0.14445311 -4.5465201e-21)
(1.115056 0.15588741 0)
(1.1461751 0.16394651 2.8317547e-20)
(1.1684034 0.16883032 -8.2368198e-20)
(1.1830964 0.17087959 -3.2664897e-20)
(1.1916475 0.17052096 8.3846488e-20)
(1.1953908 0.16822747 -4.6978773e-21)
(1.1955213 0.16444108 3.6020154e-21)
(1.1929472 0.15928829 2.8151306e-20)
(0.06263633 -0.0073161368 -3.2564196e-20)
(0.18656316 -0.016097967 -8.3413836e-20)
(0.31268608 -0.0088804091 1.7190189e-21)
(0.43761362 0.0081155944 7.2482004e-20)
(0.55829685 0.030755631 6.449138e-20)
(0.67205918 0.056620214 -7.348981e-20)
(0.77653246 0.083595007 2.051644e-22)
(0.86982887 0.10982503 8.9475147e-20)
(0.95068543 0.13384936 5.0843888e-20)
(1.0185243 0.1546258 -5.6598582e-20)
(1.0734396 0.17151655 -9.6142192e-20)
(1.1161198 0.18425739 -3.2840902e-21)
(1.1477195 0.1929043 4.3727674e-20)
(1.1697031 0.19776128 -6.7828364e-21)
(1.1836836 0.1992996 -1.3169609e-20)
(1.1912776 0.19807918 2.0100822e-20)
(1.1939921 0.19468251 4.5245902e-20)
(1.193151 0.18967082 -4.5031575e-20)
(1.1898546 0.18352337 -1.0533881e-19)
(1.1849202 0.17645695 2.5496327e-20)
(0.075838071 -0.003649053 -3.5724562e-20)
(0.220289 -0.0045311923 -1.7546451e-19)
(0.36158971 0.011093562 8.5144888e-20)
(0.49698737 0.036079341 9.5699066e-20)
(0.62379108 0.065649578 5.9612648e-20)
(0.73961494 0.096966044 8.9417906e-21)
(0.84250829 0.12766165 -1.099006e-19)
(0.93115977 0.15580489 0)
(1.0050152 0.18002818 -7.1705123e-20)
(1.0642837 0.19952106 -1.585214e-20)
(1.1098512 0.21397062 5.6715536e-20)
(1.1431289 0.22347996 1.1326114e-20)
(1.165864 0.22846643 -4.7096766e-20)
(1.1799464 0.22955063 -5.0532544e-20)
(1.1872386 0.22745104 2.5148398e-20)
(1.1894456 0.22289581 4.6311723e-20)
(1.1880339 0.21655956 -5.7294032e-20)
(1.1841979 0.20902806 -1.1047785e-19)
(1.1788645 0.20076365 -3.0796733e-21)
(1.1726938 0.19201735 2.7710185e-20)
(0.089061323 0.0019085801 -3.937438e-21)
(0.25319035 0.011697748 8.9655103e-20)
(0.40803569 0.037333116 -1.4734762e-20)
(0.55174067 0.070950118 -8.7608406e-20)
(0.6822217 0.10729662 4.6658751e-20)
(0.79764164 0.14327162 5.0156357e-20)
(0.89672485 0.1764428 5.7397292e-21)
(0.97896233 0.20500864 -1.0289432e-19)
(1.0446722 0.22789449 -2.5940218e-21)
(1.09493 0.24469082 5.227845e-20)
(1.1314038 0.25553115 6.1791773e-21)
(1.1561372 0.2609514 -2.0425865e-20)
(1.1713225 0.26174168 -7.8014051e-20)
(1.1791003 0.2588072 -6.3617654e-21)
(1.1814093 0.25305374 4.4707037e-20)
(1.1798946 0.24530639 3.7968786e-20)
(1.1758732 0.23626296 2.0177119e-20)
(1.1703452 0.22647706 -5.464947e-20)
(1.1640375 0.21635573 1.2898907e-20)
(1.1574401 0.20615547 8.4445684e-20)
(-0.0013267976 0.0014544189 -8.5280009e-22)
(-0.0047628254 0.003192065 1.8813178e-21)
(-0.010796516 0.0040991136 1.8000243e-21)
(-0.017668365 0.0044485098 -1.1363238e-21)
(-0.024451664 0.0044123153 -2.3229795e-21)
(-0.030718058 0.0041071144 2.4546307e-21)
(-0.036194377 0.0036178498 -8.3277178e-21)
(-0.040705674 0.0030059005 -7.1855457e-21)
(-0.044157225 0.0023149046 1.2930654e-20)
(-0.04650842 0.0015756238 -1.1112722e-20)
(-0.047752548 0.00080949281 -2.0326016e-22)
(-0.047903971 3.1195731e-05 4.1436222e-21)
(-0.046989637 -0.00074938757 -6.768941e-22)
(-0.045043284 -0.0015256392 2.5196584e-20)
(-0.042101826 -0.0022928148 2.735993e-22)
(-0.038204841 -0.0030465688 -4.4754086e-20)
(-0.033396985 -0.0037823298 8.3209249e-21)
(-0.02771973 -0.0044980442 2.5837235e-20)
(-0.02118367 -0.0051922387 -4.7342306e-20)
(-0.013851677 -0.0058157478 -2.9840504e-20)
(-0.0016855505 0.004233643 -5.6888806e-21)
(-0.0053939291 0.0092689053 9.7467656e-21)
(-0.011182098 0.011881753 -1.050412e-20)
(-0.017459339 0.012865571 5.6560123e-21)
(-0.023398422 0.012722602 6.7039524e-21)
(-0.028622412 0.011794958 9.1473264e-22)
(-0.03289403 0.010332025 -2.7462741e-20)
(-0.03606436 0.0085139345 -2.3156564e-21)
(-0.038056262 0.0064687379 2.3144598e-20)
(-0.03884054 0.0042866827 -5.7282308e-21)
(-0.038417594 0.0020306157 -2.4490203e-20)
(-0.036805858 -0.00025645783 5.4576704e-21)
(-0.034034171 -0.0025456781 2.4840126e-20)
(-0.030136465 -0.0048178073 1.134532e-20)
(-0.025147981 -0.0070591462 2.410083e-20)
(-0.019105753 -0.0092573855 -2.1551541e-20)
(-0.012058465 -0.011399715 -2.344511e-20)
(-0.0040581366 -0.013479573 2.3129292e-20)
(0.0049574174 -0.01548229 2.8749867e-20)
(0.015179734 -0.017239138 1.6722052e-20)
(-0.0023331576 0.0066277232 -4.6208451e-21)
(-0.0064894866 0.014440857 -4.8383498e-21)
(-0.011729575 0.018454621 5.3602185e-23)
(-0.016788758 0.019903001 -1.270016e-22)
(-0.021030644 0.019573329 7.5574321e-21)
(-0.024177382 0.018008282 1.1890758e-20)
(-0.026061373 0.015604311 -4.4107255e-21)
(-0.026584322 0.01264792 -2.1399776e-20)
(-0.025703499 0.0093430766 7.4212875e-21)
(-0.023412423 0.0058337384 1.4475943e-20)
(-0.019726173 0.0022202449 6.6808634e-21)
(-0.014672311 -0.0014287563 1.9918778e-20)
(-0.0082849273 -0.0050673882 1.9039004e-21)
(-0.0006003264 -0.0086655156 -3.6833066e-20)
(0.0083467454 -0.012202072 1.5553343e-21)
(0.018521562 -0.015658526 -2.3526793e-20)
(0.029866436 -0.019017524 -2.6802611e-20)
(0.04230545 -0.02227039 4.9729139e-20)
(0.056022092 -0.025363785 2.7540655e-20)
(0.07170467 -0.027931922 4.8837253e-22)
(-0.0031464822 0.008424899 -5.7479967e-21)
(-0.0077659848 0.018205396 -1.1266717e-20)
(-0.012080426 0.023143017 4.4847547e-21)
(-0.015271427 0.024791707 4.6899683e-21)
(-0.016966023 0.02415439 2.1179265e-21)
(-0.017025239 0.021935326 8.696325e-21)
(-0.01538054 0.018650661 1.0770821e-20)
(-0.012006623 0.014673655 -1.6136817e-21)
(-0.0069115421 0.010270646 -1.2913615e-20)
(-0.00012371752 0.0056300718 -3.2421791e-20)
(0.0083176715 0.00088348428 1.6471821e-22)
(0.018367763 -0.0038790535 4.4719956e-20)
(0.029980343 -0.0085978097 -1.9821979e-20)
(0.043109402 -0.013233958 -1.3382439e-20)
(0.057713226 -0.017761516 2.9482897e-22)
(0.073752695 -0.022159709 3.5042255e-20)
(0.091155124 -0.026414029 -1.6496479e-20)
(0.10980254 -0.030523441 -5.7112195e-20)
(0.13000536 -0.034371336 4.8570049e-20)
(0.15315978 -0.037274614 3.5233758e-20)
(-0.0039608467 0.0094809509 -4.5612243e-22)
(-0.0088359599 0.020207887 -1.3299469e-20)
(-0.011733973 0.025461217 -3.8465546e-20)
(-0.012357972 0.026972581 -7.0367662e-21)
(-0.010647522 0.025876399 -3.3607056e-21)
(-0.0066321393 0.022990148 7.2360789e-21)
(-0.00036595383 0.018915212 -5.4704769e-21)
(0.0080838598 0.014086505 -9.9983472e-21)
(0.018642601 0.0088150236 2.4273069e-20)
(0.031233218 0.0033212267 5.453284e-21)
(0.045780387 -0.0022405112 -2.8133257e-20)
(0.06221039 -0.0077643521 1.1943562e-20)
(0.080451527 -0.01318014 0)
(0.10043462 -0.018443533 1.3091951e-20)
(0.12209606 -0.023527182 -1.0470449e-20)
(0.14537699 -0.028413215 -1.5581423e-20)
(0.17017646 -0.033100216 -1.0110344e-21)
(0.19631227 -0.037615548 -2.6222362e-21)
(0.22418121 -0.041777377 4.8266988e-20)
(0.25603476 -0.044444732 -1.1950504e-20)
(-0.004588164 0.0097285464 -7.8110513e-21)
(-0.009242208 0.020267444 2.6628305e-20)
(-0.010080398 0.025152898 -1.1888356e-20)
(-0.007358854 0.026149634 -3.0069229e-20)
(-0.0013552474 0.024434795 -2.9482495e-20)
(0.0077132367 0.020886541 -1.6451176e-20)
(0.019652279 0.01615267 -9.0772361e-22)
(0.034285641 0.010700458 6.1504813e-21)
(0.051456901 0.0048647641 2.1420643e-20)
(0.071025727 -0.0011161335 8.0240572e-21)
(0.092862763 -0.0070752713 -7.7509609e-21)
(0.11684698 -0.012898179 -1.9558088e-21)
(0.14286186 -0.018509553 -4.137464e-20)
(0.17079273 -0.023863491 -1.3692388e-20)
(0.20052847 -0.028935192 2.0584778e-20)
(0.23196269 -0.033715042 -2.284129e-20)
(0.26494293 -0.038225279 -9.6189402e-21)
(0.29919792 -0.042550292 3.1950744e-20)
(0.33513679 -0.046478507 5.3019918e-20)
(0.3759157 -0.048300339 3.6374432e-21)
(-0.0048329746 0.0091737089 1.7336516e-20)
(-0.0084908172 0.01837909 1.4992677e-20)
(-0.0064365613 0.022206111 5.4618999e-20)
(0.00052343671 0.02231952 2.5489948e-20)
(0.011767595 0.019853192 2.0128965e-22)
(0.026880964 0.01569286 -4.3133303e-20)
(0.045516778 0.010492476 -2.6360017e-20)
(0.067376804 0.004721683 1.1376002e-20)
(0.092204562 -0.0012836152 1.5622562e-20)
(0.11977496 -0.0072845701 -1.4046111e-20)
(0.14988291 -0.013114321 -4.7780999e-20)
(0.18233423 -0.018659737 3.209735e-20)
(0.21693804 -0.023848285 2.1385561e-20)
(0.25350108 -0.028639096 -2.9644124e-20)
(0.29182758 -0.033016169 1.263168e-20)
(0.33172306 -0.036985073 2.5847154e-20)
(0.37294817 -0.040601728 8.7379502e-21)
(0.4151163 -0.044038519 -1.2940222e-20)
(0.45856031 -0.047132217 -1.4543474e-20)
(0.50726776 -0.047586452 7.4941945e-21)
(-0.0045034126 0.0078836452 1.1669204e-20)
(-0.0060782432 0.014696315 -2.5359237e-20)
(-8.1705476e-05 0.016842314 8.4839258e-21)
(0.012154081 0.015770828 3.6139355e-20)
(0.029671126 0.012492799 5.5515999e-20)
(0.051853535 0.0078513549 2.1796566e-20)
(0.078192528 0.0024679904 -6.2831171e-21)
(0.10824926 -0.0032175746 -1.3216373e-20)
(0.14164629 -0.0088928187 -6.743585e-21)
(0.17804781 -0.014337788 3.6933253e-20)
(0.21714085 -0.019402041 -5.0474681e-21)
(0.25862111 -0.023987674 -1.8057849e-20)
(0.30218194 -0.028037327 -2.1037276e-20)
(0.34750657 -0.0315267 -5.0989391e-20)
(0.39426708 -0.034459818 2.4788771e-20)
(0.44213244 -0.036868882 -1.5038968e-20)
(0.49073655 -0.038856899 2.7879066e-20)
(0.53956346 -0.040719336 2.2530096e-20)
(0.58880311 -0.042463808 -8.9332479e-20)
(0.64308134 -0.041369297 3.066428e-22)
(-0.0034183046 0.005972565 2.2790394e-20)
(-0.001517168 0.0095080444 -2.7908187e-20)
(0.0096963104 0.0094984403 -4.7371611e-20)
(0.02839746 0.0070766944 -2.8935167e-20)
(0.053307367 0.0030593029 -2.1827387e-21)
(0.083604536 -0.0018011223 1.4036542e-20)
(0.1186046 -0.0069544933 -3.0455814e-21)
(0.15770883 -0.012022736 1.9367502e-20)
(0.2003902 -0.016743995 9.4664758e-21)
(0.24616613 -0.02094073 -1.2193326e-20)
(0.29457362 -0.024499939 9.6777306e-21)
(0.34515133 -0.027358296 -2.5661872e-20)
(0.3974268 -0.029491474 8.9297037e-21)
(0.45090824 -0.030907496 1.7996981e-20)
(0.50508357 -0.031642728 -3.0126033e-21)
(0.55943065 -0.031763739 1.9058359e-21)
(0.61340186 -0.031421449 -5.7900627e-22)
(0.66633028 -0.031018336 2.1081466e-20)
(0.7182302 -0.030756023 3.9884882e-21)
(0.7741301 -0.02799505 -2.1557881e-21)
(-0.0014079028 0.0035902403 2.4859314e-20)
(0.0056437484 0.0032239237 6.0547943e-20)
(0.023547145 0.00082430534 -5.1539971e-20)
(0.050020585 -0.0028865047 -1.0521259e-20)
(0.08347798 -0.0073585281 2.1511894e-20)
(0.12288808 -0.011976647 2.2707401e-21)
(0.16737489 -0.016302265 -3.1633754e-20)
(0.21615243 -0.020055589 7.4390915e-21)
(0.26850736 -0.02305864 7.5572095e-21)
(0.32376701 -0.02520736 -2.8021772e-20)
(0.38127194 -0.02645599 1.376694e-21)
(0.44035876 -0.026804339 -3.9837101e-20)
(0.5003509 -0.026287378 -3.8968708e-20)
(0.56055552 -0.0249669 7.0457203e-20)
(0.62026648 -0.0229242 5.961786e-21)
(0.67877142 -0.020259104 -1.6238787e-20)
(0.73533707 -0.017130519 2.0643583e-20)
(0.789136 -0.013842324 -9.679521e-22)
(0.83971137 -0.01041891 2.0979574e-20)
(0.89075041 -0.0053414739 -2.1401309e-20)
(-0.0051306615 -0.0061004504 6.270446e-20)
(0.0051001009 -0.0066198474 1.6604275e-20)
(0.016756407 -0.0070349704 -3.7004948e-20)
(0.029481653 -0.0072749972 1.7863249e-20)
(0.042996994 -0.0074238463 0)
(0.057235598 -0.0075107701 0)
(0.072133095 -0.007538756 -2.3871546e-20)
(0.087604415 -0.0075158455 -1.7011139e-20)
(0.10357328 -0.0074518998 1.9832867e-20)
(0.11997495 -0.0073541432 1.8697452e-20)
(0.13674976 -0.0072280917 1.039574e-21)
(0.15384157 -0.0070785989 -1.0423148e-20)
(0.17119804 -0.0069098994 8.5851541e-21)
(0.18877032 -0.0067255866 1.8258758e-20)
(0.20651244 -0.0065287366 -5.4158949e-21)
(0.22438095 -0.006322019 -1.0074959e-20)
(0.24233469 -0.0061077632 -4.2519733e-21)
(0.26033464 -0.0058880103 -4.2631653e-21)
(0.27834376 -0.0056645599 6.9271658e-22)
(0.29632697 -0.0054390071 1.2105907e-21)
(0.31425112 -0.0052127699 2.5798768e-21)
(0.33208493 -0.0049871112 6.4685441e-21)
(0.34979909 -0.0047631551 1.3424154e-22)
(0.36736626 -0.004541899 -3.3387046e-21)
(0.38476106 -0.0043242236 1.2703352e-22)
(0.4019602 -0.0041109001 -5.5294955e-22)
(0.41894241 -0.0039025962 1.185664e-21)
(0.43568848 -0.0036998825 9.6261467e-22)
(0.45218131 -0.0035032371 -1.2904938e-21)
(0.46840581 -0.0033130511 -9.8260124e-23)
(0.48434893 -0.0031296343 -4.9631863e-23)
(0.49999959 -0.0029532209 -3.2720034e-22)
(0.51534862 -0.0027839758 -4.1058562e-22)
(0.53038874 -0.0026220009 9.3677801e-23)
(0.54511443 -0.002467342 -1.2631978e-22)
(0.55952192 -0.0023199957 -1.9475028e-22)
(0.57360908 -0.0021799172 2.214345e-22)
(0.58737545 -0.0020470273 2.5033711e-22)
(0.60082202 -0.0019212225 -3.487295e-23)
(0.61395172 -0.001802379 -1.6420308e-22)
(0.62676814 -0.0016903818 1.4599255e-23)
(0.63927975 -0.0015850805 -2.3478187e-23)
(0.65148774 -0.0014865041 7.8529367e-23)
(0.66342446 -0.0013942783 -1.9711411e-23)
(0.67504078 -0.0013096581 -1.3601338e-22)
(0.68654535 -0.0012294567 7.1275187e-24)
(0.69742021 -0.0011657189 6.8677836e-24)
(0.70929668 -0.0010863388 -5.4430277e-24)
(0.71772126 -0.0010989776 2.5543185e-23)
(0.7352458 -0.00092890107 3.7278461e-22)
(0.025121585 -0.017957275 -1.4073651e-20)
(0.034373805 -0.019533681 -6.7175429e-20)
(0.045532064 -0.020753602 -3.274911e-20)
(0.057729084 -0.021437582 4.0733122e-20)
(0.070569891 -0.021864995 1.5456401e-20)
(0.084068117 -0.022120724 -1.9356244e-20)
(0.098191823 -0.022205746 5.226514e-21)
(0.11285897 -0.022142207 2.6287933e-20)
(0.12800073 -0.021959461 -2.0076148e-22)
(0.14356196 -0.021678257 -7.9925011e-21)
(0.15949021 -0.021314159 -1.2898874e-20)
(0.17573468 -0.020881075 -8.8936837e-21)
(0.1922476 -0.020391236 1.7935408e-20)
(0.20898395 -0.019855029 9.6342329e-21)
(0.22590085 -0.019281372 -1.620115e-20)
(0.24295734 -0.018678037 -6.0051626e-21)
(0.26011431 -0.018051836 3.0986886e-21)
(0.27733437 -0.017408763 8.113229e-21)
(0.29458182 -0.016754121 6.9264078e-21)
(0.31182264 -0.016092629 -7.0738408e-21)
(0.32902451 -0.015428495 -3.3874413e-21)
(0.34615683 -0.01476548 1.5787845e-21)
(0.36319078 -0.014106939 6.7597099e-22)
(0.38009937 -0.013455857 1.2453339e-21)
(0.39685751 -0.012814878 2.410171e-22)
(0.41344201 -0.012186319 -3.7542776e-22)
(0.42983169 -0.011572194 -7.4887162e-22)
(0.4460073 -0.010974229 1.0742777e-21)
(0.46195162 -0.010393872 8.7156465e-22)
(0.47764938 -0.0098323161 -2.7828433e-22)
(0.49308728 -0.0092905086 5.9780795e-22)
(0.50825394 -0.008769173 -2.222826e-22)
(0.52313985 -0.0082688251 -4.1439626e-22)
(0.5377373 -0.0077897925 -6.2165793e-22)
(0.55204034 -0.0073322352 4.0450443e-22)
(0.56604472 -0.0068961659 -1.1735485e-22)
(0.57974779 -0.0064814727 2.2456009e-22)
(0.59314855 -0.0060879406 -4.6737462e-22)
(0.60624744 -0.0057152816 4.5241749e-22)
(0.6190468 -0.0053631457 5.9856843e-23)
(0.63154967 -0.0050312096 -5.506528e-23)
(0.64376386 -0.0047190421 2.170249e-22)
(0.65569005 -0.0044267496 2.9158112e-22)
(0.66735975 -0.0041532284 2.2170712e-22)
(0.67872387 -0.0039022478 2.3768607e-22)
(0.68998819 -0.0036643003 -1.6898058e-23)
(0.70064081 -0.0034753443 1.2166383e-22)
(0.71229079 -0.0032396552 1.0687456e-22)
(0.7205471 -0.0032777888 -2.0500678e-22)
(0.73777025 -0.0027727085 -7.0445252e-24)
(0.083877809 -0.028741386 1.0353425e-20)
(0.091196325 -0.031384807 3.908164e-21)
(0.10126045 -0.033355519 -1.3931877e-20)
(0.1123712 -0.034406277 -1.6793161e-21)
(0.12384803 -0.035075363 1.6167763e-20)
(0.13586117 -0.03549807 -1.5648409e-20)
(0.14845009 -0.035654142 -3.1567026e-20)
(0.16153492 -0.035574008 1.5428826e-20)
(0.17505799 -0.035305744 1.916121e-20)
(0.18898198 -0.03488149 -1.2147261e-20)
(0.20326742 -0.034324354 1.0467169e-21)
(0.21787282 -0.033655548 8.3947297e-21)
(0.23275826 -0.032894092 -1.5798617e-20)
(0.24788533 -0.032056206 3.8528736e-21)
(0.26321644 -0.031155876 7.8230158e-21)
(0.27871488 -0.030205404 -5.6532208e-22)
(0.29434494 -0.029215663 -1.0225327e-22)
(0.31007197 -0.028196295 -7.6538247e-21)
(0.32586245 -0.027155895 4.4754664e-21)
(0.34168408 -0.026102163 8.6756833e-21)
(0.35750588 -0.025042008 -3.9005939e-21)
(0.37329828 -0.023981639 -2.1676513e-21)
(0.38903323 -0.022926624 8.7387648e-22)
(0.40468429 -0.021881938 -1.7793293e-21)
(0.42022671 -0.020852004 1.3059521e-21)
(0.43563747 -0.019840722 6.9077473e-22)
(0.4508954 -0.018851492 1.8216062e-21)
(0.46598111 -0.017887239 -2.1900946e-21)
(0.48087712 -0.016950438 2.4839012e-21)
(0.49556777 -0.016043137 5.9402171e-22)
(0.51003928 -0.015166982 6.312987e-22)
(0.52427966 -0.014323248 2.9960368e-22)
(0.53827871 -0.013512862 1.0284973e-21)
(0.55202796 -0.012736444 -1.5735272e-21)
(0.56552062 -0.01199433 4.3878019e-22)
(0.57875153 -0.011286614 2.2971832e-22)
(0.59171709 -0.01061318 -8.2205027e-23)
(0.6044153 -0.0099737421 9.4203342e-24)
(0.61684557 -0.0093678882 -4.0342735e-22)
(0.62900916 -0.0087951034 2.267992e-22)
(0.64090802 -0.0082549147 -2.9354175e-23)
(0.65254884 -0.0077466665 5.5519646e-22)
(0.66393127 -0.0072705938 -2.5700566e-22)
(0.67508529 -0.0068249194 3.6663156e-23)
(0.68596192 -0.0064159295 7.7142021e-23)
(0.69676148 -0.0060279657 -9.5092642e-23)
(0.70698362 -0.005720326 -1.6005238e-22)
(0.71819477 -0.0053355765 5.2361982e-22)
(0.72612445 -0.0053995793 1.8221782e-22)
(0.74276304 -0.0045750107 -8.5434924e-22)
(0.16819131 -0.037704389 1.8487468e-21)
(0.17265353 -0.041399038 -1.1834823e-20)
(0.18089148 -0.044040835 6.5885048e-21)
(0.19029891 -0.045368958 -1.4149312e-20)
(0.19970826 -0.046247439 -2.0902718e-21)
(0.20949264 -0.046851388 1.0054748e-20)
(0.21981114 -0.04711632 -1.102447e-20)
(0.2305829 -0.04707163 1.0783628e-21)
(0.24175836 -0.046781526 1.3415334e-20)
(0.25332316 -0.046286876 3.8674989e-21)
(0.2652548 -0.04561513 -6.3932971e-21)
(0.27752271 -0.044792171 -3.2557109e-21)
(0.29009604 -0.043841994 -5.510188e-21)
(0.30294413 -0.042785344 -6.8190881e-21)
(0.31603551 -0.041640274 2.7370828e-21)
(0.32933827 -0.040422848 2.3009383e-22)
(0.34282046 -0.039147464 1.591443e-21)
(0.35645041 -0.037827045 -3.3817673e-21)
(0.37019691 -0.036473241 -4.6149433e-21)
(0.38402944 -0.035096582 2.5364285e-21)
(0.39791837 -0.033706606 3.5431238e-21)
(0.41183511 -0.032311947 -1.8654522e-21)
(0.4257523 -0.0309204 1.6945103e-21)
(0.43964394 -0.029538976 -5.2323378e-22)
(0.45348546 -0.028173939 -4.3410901e-21)
(0.46725388 -0.026830844 -3.0631076e-21)
(0.48092781 -0.025514564 -3.0431011e-22)
(0.49448757 -0.024229316 2.9983942e-22)
(0.50791516 -0.022978696 -2.2049189e-21)
(0.52119431 -0.021765709 -1.0905416e-21)
(0.53431048 -0.020592799 2.1451741e-22)
(0.54725082 -0.019461893 -1.4107605e-21)
(0.56000414 -0.018374435 -7.0595446e-23)
(0.5725609 -0.017331437 -5.1932924e-22)
(0.58491316 -0.016333515 -4.3568218e-22)
(0.59705451 -0.015380943 -7.0875912e-22)
(0.60898007 -0.014473704 -1.0797823e-21)
(0.62068646 -0.013611534 -7.6722192e-24)
(0.6321717 -0.012793996 -3.4521723e-24)
(0.64343563 -0.012020501 -6.2710788e-22)
(0.65447873 -0.011290516 -9.253744e-24)
(0.66530614 -0.010603249 -4.3253758e-22)
(0.6759162 -0.0099591375 -6.4105304e-22)
(0.68633674 -0.0093558232 5.0595276e-22)
(0.69651903 -0.0088020885 1.3571984e-23)
(0.70665568 -0.0082764444 2.503576e-22)
(0.71626298 -0.0078604646 -1.8378707e-22)
(0.72684608 -0.0073384373 -3.5502355e-22)
(0.73430838 -0.0074285166 -1.2967169e-23)
(0.75010734 -0.0063098152 4.8805296e-22)
(0.27400902 -0.044045046 -2.3163496e-20)
(0.27470556 -0.048766605 5.0212096e-20)
(0.28023907 -0.051988845 1.0774586e-20)
(0.28723536 -0.053531175 -1.6788497e-20)
(0.29386887 -0.054623602 -2.5498074e-21)
(0.3007011 -0.055457467 2.3418339e-21)
(0.30805796 -0.055907354 -2.1481633e-21)
(0.31585932 -0.055991337 -4.8922591e-21)
(0.32405237 -0.055782691 -4.1842208e-21)
(0.33264448 -0.055327681 -1.2673122e-20)
(0.34163161 -0.054655662 1.9035341e-20)
(0.35099338 -0.053794502 7.0733239e-21)
(0.36070656 -0.052771002 -1.718898e-20)
(0.37074717 -0.051609057 9.9185851e-21)
(0.38108905 -0.05032985 7.9042493e-21)
(0.39170418 -0.048952526 -3.1275785e-22)
(0.4025636 -0.047494538 -2.7615146e-21)
(0.41363786 -0.045971818 -4.3369302e-21)
(0.42489738 -0.044398926 -1.6262255e-21)
(0.43631281 -0.042789182 -1.4369347e-21)
(0.44785529 -0.041154776 -3.4165241e-21)
(0.4594967 -0.039506838 0)
(0.47120989 -0.037855494 -1.5156925e-21)
(0.48296884 -0.036209914 3.9971722e-21)
(0.49474879 -0.034578346 5.7332011e-21)
(0.50652639 -0.032968144 -9.0408667e-22)
(0.51827973 -0.031385802 -3.345384e-21)
(0.52998846 -0.029836982 3.5257062e-21)
(0.54163381 -0.028326551 1.1864754e-23)
(0.55319858 -0.026858614 3.8271637e-21)
(0.5646672 -0.025436562 -5.0356366e-22)
(0.5760257 -0.024063116 1.8140037e-21)
(0.58726166 -0.022740377 -9.2321825e-22)
(0.59836423 -0.021469884 4.3088305e-22)
(0.60932407 -0.020252667 -5.5395278e-22)
(0.62013331 -0.019089311 5.8789797e-22)
(0.63078554 -0.01798002 5.489034e-22)
(0.6412758 -0.016924681 4.6153989e-22)
(0.65160051 -0.015922945 -1.1355969e-21)
(0.66175783 -0.014974269 8.1277556e-22)
(0.67174657 -0.014078167 -4.2604975e-22)
(0.68157012 -0.013233815 -1.4001734e-21)
(0.69122525 -0.012441945 1.7874363e-21)
(0.70073732 -0.011699734 -5.4183777e-23)
(0.71005804 -0.011018415 -2.0356823e-22)
(0.71937044 -0.010371108 -6.9533946e-24)
(0.72821202 -0.009860173 -2.0424377e-22)
(0.73801042 -0.0092163493 -6.0935376e-22)
(0.74488942 -0.0093324943 7.7377217e-22)
(0.75963341 -0.0079531969 -5.0811451e-23)
(0.39628928 -0.046810096 -1.9436687e-20)
(0.39236002 -0.052591523 1.3291363e-20)
(0.39421944 -0.056347524 3.928395e-21)
(0.39801932 -0.058132114 -8.168277e-21)
(0.4012058 -0.059523814 1.2794226e-20)
(0.40443449 -0.060691437 8.247373e-21)
(0.40822233 -0.061452842 -1.2914944e-20)
(0.41250687 -0.06181158 -6.3637377e-21)
(0.41721679 -0.061837177 1.3258286e-20)
(0.4223691 -0.061575029 -1.66584e-20)
(0.42797552 -0.061055154 -1.4544026e-20)
(0.43402379 -0.060305937 1.5388441e-20)
(0.44049475 -0.059355168 7.0340621e-21)
(0.44736782 -0.058228728 -5.2908874e-21)
(0.45461972 -0.056950366 -1.3010147e-21)
(0.46222439 -0.055542004 -3.5596491e-21)
(0.47015404 -0.054024 4.7788213e-21)
(0.47837993 -0.052415287 3.6896337e-21)
(0.4868728 -0.050733439 -3.1174007e-21)
(0.49560334 -0.04899474 3.1225872e-21)
(0.50454245 -0.047214239 2.9770592e-21)
(0.51366163 -0.0454058 -3.3955972e-21)
(0.52293314 -0.043582132 3.6683187e-22)
(0.53233028 -0.041754814 -3.1821272e-21)
(0.5418275 -0.039934321 8.249532e-21)
(0.55140052 -0.038130052 6.5700838e-21)
(0.56102646 -0.036350351 1.0690573e-21)
(0.57068387 -0.034602546 -1.8473071e-21)
(0.58035284 -0.032892983 4.3356239e-21)
(0.59001493 -0.031227074 8.1638188e-21)
(0.59965327 -0.029609342 2.4103983e-21)
(0.6092525 -0.028043484 3.7539299e-21)
(0.61879878 -0.026532431 2.1588448e-21)
(0.62827977 -0.025078411 8.6669534e-22)
(0.63768456 -0.023683026 -2.4414332e-22)
(0.64700369 -0.022347322 3.131614e-21)
(0.65622912 -0.021071869 7.0430962e-22)
(0.66535422 -0.019856837 3.2179771e-22)
(0.67437368 -0.018702103 5.7115783e-23)
(0.68328393 -0.01760729 1.2338235e-21)
(0.69208207 -0.016572081 4.1957995e-23)
(0.7007696 -0.015595736 5.8874222e-22)
(0.70934175 -0.01467937 -1.2663628e-22)
(0.71782116 -0.013819825 -4.0943733e-22)
(0.72616034 -0.013030714 -2.0358783e-22)
(0.73453123 -0.012280286 -5.574918e-22)
(0.7424965 -0.011689873 2.4252464e-22)
(0.75139285 -0.010942355 -1.641202e-22)
(0.75760293 -0.011084336 -4.4251981e-22)
(0.77112474 -0.0094839291 2.8484007e-22)
(0.52890241 -0.045080803 3.4268722e-21)
(0.51970919 -0.051966601 -1.9378316e-20)
(0.5169641 -0.056267031 -2.60931e-21)
(0.51679651 -0.058483542 5.7215233e-21)
(0.51601071 -0.060400282 3.6354112e-21)
(0.51516642 -0.062093392 6.5391901e-22)
(0.51493951 -0.063354531 7.2693694e-21)
(0.51532766 -0.064188354 8.2016289e-21)
(0.51623837 -0.064650454 1.0131787e-20)
(0.51767575 -0.064776609 -1.1915722e-20)
(0.51965688 -0.064595839 -2.3054863e-20)
(0.52217463 -0.064137127 -4.5614492e-21)
(0.52521017 -0.063428821 1.6890264e-20)
(0.52874215 -0.06249839 1.3459562e-20)
(0.53274684 -0.061372197 -5.7323363e-21)
(0.53719766 -0.060075234 8.6064188e-22)
(0.54206601 -0.058631137 -4.2382159e-21)
(0.5473221 -0.057062241 3.1732114e-21)
(0.55293554 -0.055389564 -2.9363152e-22)
(0.55887578 -0.053632792 -1.9787747e-21)
(0.56511245 -0.051810271 8.5643294e-21)
(0.57161567 -0.049939014 -5.0912651e-22)
(0.57835635 -0.048034709 6.189696e-22)
(0.58530636 -0.046111717 -4.4335998e-22)
(0.59243869 -0.044183096 -4.5326649e-21)
(0.59972761 -0.042260608 4.4231314e-21)
(0.60714874 -0.040354756 1.8387591e-21)
(0.61467914 -0.038474811 -3.4574587e-21)