/*--------------------------------*- C++ -*----------------------------------*\
  =========                 |
  \\      /  F ield         | OpenFOAM: The Open Source CFD Toolbox
   \\    /   O peration     | Website:  https://openfoam.org
    \\  /    A nd           | Version:  6
     \\/     M anipulation  |
\*---------------------------------------------------------------------------*/
FoamFile
{
    version     2.0;
    format      ascii;
    class       volScalarField;
    location    "151";
    object      pMean;
}
// * * * * * * * * * * * * * * * * * * * * * * * * * * * * * * * * * * * * * //

dimensions      [0 2 -2 0 0 0 0];

internalField   nonuniform List<scalar> 
9200
(
-0.39912684
-0.38698387
-0.37613296
-0.3665494
-0.35717
-0.34799544
-0.33910999
-0.33047761
-0.32202625
-0.31368138
-0.30536939
-0.29702237
-0.28858526
-0.28002286
-0.27132989
-0.26254798
-0.25375983
-0.24505812
-0.23744443
-0.23510741
-0.41764678
-0.40305506
-0.39026879
-0.37915527
-0.36838037
-0.35791449
-0.34783226
-0.33806775
-0.3285186
-0.31908643
-0.3096805
-0.30022329
-0.29065794
-0.2809537
-0.27111082
-0.26116365
-0.25115153
-0.24108261
-0.23162921
-0.22492455
-0.43648392
-0.41943655
-0.40477112
-0.39220178
-0.38008515
-0.36834355
-0.35703125
-0.34604637
-0.33525615
-0.32454418
-0.31381346
-0.3029915
-0.29203649
-0.28093957
-0.26972363
-0.25843821
-0.24713157
-0.23581994
-0.22490111
-0.21548824
-0.45517736
-0.43570698
-0.41923432
-0.40527073
-0.39182768
-0.37876409
-0.3661078
-0.35372271
-0.34145588
-0.32919014
-0.31684434
-0.30437521
-0.29177938
-0.27908995
-0.26636874
-0.25369554
-0.24114398
-0.22875671
-0.21680237
-0.20602878
-0.4730693
-0.4512921
-0.43313386
-0.41785148
-0.40308596
-0.38862378
-0.37446858
-0.36046327
-0.34645731
-0.33236121
-0.31813967
-0.3038061
-0.28941698
-0.27506079
-0.26084388
-0.24687609
-0.23325063
-0.22002551
-0.2073898
-0.19585974
-0.4893091
-0.46544621
-0.44578145
-0.42926714
-0.41316713
-0.39719803
-0.38135446
-0.36548633
-0.34948112
-0.3333136
-0.31702618
-0.30071172
-0.28449785
-0.26852815
-0.25294395
-0.23786989
-0.22339937
-0.20958395
-0.19654886
-0.18463822
-0.50286898
-0.47725919
-0.45632746
-0.43867883
-0.4212205
-0.40361787
-0.38588701
-0.36792733
-0.34970917
-0.33130989
-0.31287575
-0.29459028
-0.27664887
-0.25923549
-0.24250504
-0.22657346
-0.21151136
-0.19734281
-0.18413213
-0.17208465
-0.51256747
-0.48568184
-0.46379554
-0.44513501
-0.42630431
-0.40695427
-0.38716725
-0.36694514
-0.34638871
-0.32571081
-0.30517613
-0.28505589
-0.26559665
-0.24699837
-0.22940342
-0.21289569
-0.19750448
-0.18321312
-0.17002638
-0.15803198
-0.51704949
-0.48942202
-0.46688064
-0.44728199
-0.4270293
-0.4058233
-0.38387339
-0.36134012
-0.3384917
-0.31568877
-0.2933049
-0.27167425
-0.25106274
-0.23165513
-0.21355567
-0.19679878
-0.18136289
-0.1671874
-0.15422186
-0.1424528
-0.51496072
-0.48705253
-0.46402235
-0.443444
-0.42167005
-0.39853557
-0.37444098
-0.34974795
-0.32490172
-0.30039005
-0.27665555
-0.25404878
-0.23281257
-0.2130846
-0.19491222
-0.17827315
-0.1630966
-0.14928452
-0.13673857
-0.12535678
-0.27939872
-0.28372028
-0.28567915
-0.28594459
-0.28521596
-0.28365972
-0.28137289
-0.27845167
-0.2749716
-0.27099069
-0.26655659
-0.26171023
-0.25648799
-0.25092321
-0.2450474
-0.23889277
-0.2324937
-0.22587414
-0.21903589
-0.21207082
-0.28235714
-0.28623673
-0.28787538
-0.28791691
-0.28700298
-0.2852914
-0.28287702
-0.27985165
-0.27628678
-0.27223725
-0.26774802
-0.26285768
-0.25760052
-0.25200767
-0.24610784
-0.239932
-0.23352189
-0.22689978
-0.21995788
-0.21266934
-0.28811727
-0.29113656
-0.29215336
-0.29175718
-0.29048036
-0.28846503
-0.28580181
-0.28257395
-0.27884512
-0.27466389
-0.27006983
-0.26509683
-0.25977496
-0.25413115
-0.24818892
-0.24197594
-0.23554503
-0.22891756
-0.22179085
-0.21389426
-0.29640335
-0.29819707
-0.298317
-0.29727758
-0.29546115
-0.2929899
-0.28994934
-0.28641123
-0.28242838
-0.27804061
-0.27327981
-0.26817306
-0.26274433
-0.25701434
-0.25099944
-0.24472157
-0.23824468
-0.23159531
-0.2242256
-0.21548345
-0.30686856
-0.30713895
-0.30612229
-0.3042473
-0.30171877
-0.29863796
-0.29508588
-0.29112118
-0.28678396
-0.28210367
-0.27710292
-0.27179969
-0.26620971
-0.26034624
-0.25421712
-0.24783553
-0.24127237
-0.23456789
-0.22692218
-0.21716345
-0.31915377
-0.3176727
-0.31531855
-0.3124334
-0.3090295
-0.30518901
-0.30099062
-0.29648025
-0.29168457
-0.28662019
-0.2812979
-0.27572551
-0.26990921
-0.26385329
-0.25755619
-0.25101967
-0.24431381
-0.23749833
-0.229554
-0.21868027
-0.33294005
-0.32953978
-0.32568529
-0.32163831
-0.31721242
-0.31247452
-0.307505
-0.30233662
-0.29698011
-0.29143853
-0.28571019
-0.27979075
-0.27367519
-0.26735786
-0.26082805
-0.25407608
-0.24716471
-0.24017612
-0.23193665
-0.21996197
-0.34797933
-0.34253758
-0.3370563
-0.3317261
-0.32616057
-0.32041466
-0.31457083
-0.30864831
-0.30264202
-0.29653963
-0.29032424
-0.28397661
-0.27747765
-0.27080951
-0.26395206
-0.25688742
-0.24967636
-0.2424471
-0.23398937
-0.22114152
-0.36409308
-0.35650966
-0.34929824
-0.34258814
-0.33578799
-0.32893989
-0.32213054
-0.31536535
-0.30862088
-0.30186659
-0.29506722
-0.28818491
-0.28118169
-0.27401995
-0.26665797
-0.25905191
-0.2512288
-0.2433002
-0.2340573
-0.22006288
-0.38116242
-0.37132602
-0.36227457
-0.35408094
-0.34593748
-0.33787337
-0.32997962
-0.322246
-0.3146288
-0.30707828
-0.29954126
-0.29196387
-0.28429467
-0.27648486
-0.2684831
-0.26023117
-0.25167879
-0.24263102
-0.23149032
-0.21530101
-0.20419041
-0.194412
-0.18467577
-0.17506208
-0.16551189
-0.15606532
-0.14677944
-0.13769094
-0.12882837
-0.12021927
-0.11188821
-0.1038556
-0.096138119
-0.088749309
-0.081699611
-0.074996479
-0.068644549
-0.062645815
-0.056999792
-0.051703681
-0.046752556
-0.042139542
-0.037856024
-0.033891847
-0.030235527
-0.026874469
-0.023795177
-0.020983469
-0.018424676
-0.016103839
-0.014005892
-0.012115832
-0.010418875
-0.0089005934
-0.007547052
-0.0063449176
-0.0052815752
-0.0043452133
-0.0035249993
-0.0028109701
-0.0021949475
-0.0016682629
-0.0012299487
-0.0008626405
-0.00060881346
-0.00034467312
-0.00046101935
0.00012500892
-0.0018476364
0.0028522767
-0.20552665
-0.19530939
-0.18544204
-0.17583103
-0.16624691
-0.15675244
-0.14742591
-0.13830006
-0.12940034
-0.12075499
-0.11238906
-0.10432279
-0.096572844
-0.089152819
-0.082073215
-0.075341523
-0.068962411
-0.062937902
-0.057267527
-0.051948494
-0.046975868
-0.04234276
-0.038040528
-0.034058979
-0.03038659
-0.027010716
-0.023917806
-0.02109362
-0.018523428
-0.016192209
-0.014084832
-0.012186231
-0.010481554
-0.0089563152
-0.0075965149
-0.0063887606
-0.00532038
-0.0043795057
-0.0035552522
-0.0028376048
-0.0022183351
-0.0016887266
-0.0012477476
-0.00087802185
-0.0006217581
-0.00035572337
-0.00046812757
0.00011634945
-0.0018359617
0.002822862
-0.20824078
-0.19710019
-0.18697696
-0.17741589
-0.16778099
-0.1581942
-0.14879074
-0.13959342
-0.13061989
-0.12190082
-0.1134629
-0.1053263
-0.097507754
-0.090021228
-0.082877507
-0.076084275
-0.069646369
-0.063565948
-0.057842641
-0.052473711
-0.047454247
-0.042777352
-0.038434344
-0.034414971
-0.030707625
-0.027299559
-0.02417711
-0.021325909
-0.018731091
-0.016377495
-0.014249846
-0.012332932
-0.010611758
-0.0090716943
-0.0076986021
-0.006478954
-0.0053999479
-0.0044495919
-0.0036168817
-0.0028916883
-0.0022656729
-0.0017300123
-0.0012835438
-0.00090884627
-0.00064762649
-0.00037768187
-0.00048224943
9.9351407e-05
-0.0018128276
0.0027645999
-0.21205723
-0.19945835
-0.18897019
-0.1795893
-0.1699354
-0.16023458
-0.15074135
-0.14146133
-0.13239528
-0.12357933
-0.11504455
-0.10681135
-0.098896807
-0.0913158
-0.084079893
-0.077197316
-0.07067335
-0.064510527
-0.058708762
-0.053265521
-0.048176023
-0.043433434
-0.039029084
-0.034952679
-0.031192527
-0.027735764
-0.024568579
-0.021676434
-0.019044276
-0.016656741
-0.014498347
-0.012553665
-0.010807485
-0.0092449634
-0.0078517503
-0.0066141134
-0.0055190522
-0.0045543849
-0.0037089249
-0.0029723681
-0.002336207
-0.0017914544
-0.00133675
-0.00095459853
-0.00068596489
-0.00041015608
-0.00050306822
7.4349446e-05
-0.0017785592
0.0026786914
-0.21662301
-0.20201812
-0.19106889
-0.18207231
-0.17248998
-0.1626809
-0.15310943
-0.14376258
-0.13460843
-0.12569039
-0.11704889
-0.10870591
-0.10067916
-0.09298514
-0.085636968
-0.078644009
-0.072012441
-0.065745553
-0.059843865
-0.054305309
-0.049125436
-0.04429764
-0.039813378
-0.0356624
-0.031832987
-0.028312186
-0.025086046
-0.022139848
-0.019458324
-0.017025875
-0.014826758
-0.01284528
-0.011065955
-0.0094736619
-0.0080537786
-0.0067923035
-0.0056759753
-0.00469236
-0.0038300295
-0.0030784459
-0.0024288768
-0.0018721161
-0.0014065397
-0.0010145525
-0.00073613856
-0.00045258938
-0.00053016402
4.1859752e-05
-0.0017337677
0.0025670204
-0.22148432
-0.20442388
-0.1929394
-0.18456388
-0.17520775
-0.16533281
-0.15571182
-0.14633653
-0.13712435
-0.12812007
-0.11937852
-0.11092692
-0.10278439
-0.094969623
-0.087498227
-0.080381574
-0.07362741
-0.067240316
-0.06122189
-0.055570918
-0.050283608
-0.045353838
-0.040773397
-0.03653224
-0.032618734
-0.029019921
-0.025721761
-0.022709379
-0.019967301
-0.017479674
-0.015230476
-0.013203706
-0.01138356
-0.0097545909
-0.0083018476
-0.0070110037
-0.0058684797
-0.0048615326
-0.0039784367
-0.0032083655
-0.0025423079
-0.001970786
-0.0014918479
-0.0010877765
-0.00079733793
-0.00050427744
-0.0005630162
2.5223513e-06
-0.0016792643
0.002432035
-0.22617762
-0.2064509
-0.19433634
-0.18674648
-0.17784424
-0.1680221
-0.15839634
-0.14903657
-0.13981495
-0.13076067
-0.12194115
-0.11339426
-0.10514319
-0.097209424
-0.089611911
-0.082365104
-0.075479209
-0.068960803
-0.062813143
-0.057036373
-0.051627771
-0.046582035
-0.041891558
-0.037546709
-0.033536107
-0.029846907
-0.026465064
-0.023375603
-0.020562868
-0.018010764
-0.015702976
-0.013623176
-0.011755207
-0.010083254
-0.0085919938
-0.0072667247
-0.0060934988
-0.0050592126
-0.0041517919
-0.0033600708
-0.0026747094
-0.0020859101
-0.0015913305
-0.0011731165
-0.00086858002
-0.0005643908
-0.00060102555
-4.2973375e-05
-0.0016159938
0.0022765926
-0.23040384
-0.20846528
-0.19547471
-0.18843121
-0.18017575
-0.17064453
-0.16110103
-0.15178829
-0.1425997
-0.13353775
-0.12466909
-0.11604484
-0.10769674
-0.099650434
-0.091928655
-0.084549773
-0.077527323
-0.070870564
-0.064584968
-0.058672515
-0.053131965
-0.047959176
-0.043147425
-0.038687723
-0.034569124
-0.030779034
-0.027303511
-0.024127552
-0.021235368
-0.018610645
-0.016236785
-0.014097123
-0.012175132
-0.010454602
-0.0089197993
-0.0075556097
-0.0063476737
-0.0052824829
-0.0043475698
-0.0035313838
-0.0028242107
-0.0022158895
-0.0017036277
-0.0012694274
-0.00094890861
-0.00063214426
-0.00064365145
-9.4011137e-05
-0.0015450326
0.0021039048
-0.23182747
-0.2106369
-0.19698418
-0.18953681
-0.18176794
-0.17281783
-0.16354905
-0.15435797
-0.1452635
-0.13626183
-0.12740326
-0.11874727
-0.11033743
-0.10220594
-0.094380092
-0.086882877
-0.079732121
-0.072940701
-0.066517132
-0.06046597
-0.054788125
-0.049481203
-0.044539874
-0.03995622
-0.035720088
-0.031819432
-0.028240643
-0.024968873
-0.021988338
-0.019282601
-0.016834843
-0.0146281
-0.012645487
-0.010870392
-0.0092866531
-0.0078787141
-0.0066317659
-0.0055318529
-0.0045660677
-0.003722427
-0.0029907927
-0.0023605915
-0.0018285176
-0.0013764133
-0.001037989
-0.00070712025
-0.00069066292
-0.00014980903
-0.0014679418
0.0019181788
-0.22229123
-0.21006129
-0.19831774
-0.18951322
-0.18171674
-0.17356621
-0.16491974
-0.15610478
-0.14729996
-0.13853464
-0.12984106
-0.12127965
-0.11290741
-0.10476784
-0.09689648
-0.089323809
-0.08207463
-0.075167912
-0.068617337
-0.062431832
-0.056615975
-0.051170393
-0.046092197
-0.041375404
-0.037011345
-0.032989072
-0.029295744
-0.025916998
-0.022837295
-0.020040254
-0.01750895
-0.015226191
-0.013174767
-0.011337673
-0.0096983012
-0.0082406208
-0.0069493307
-0.0058099766
-0.0048091568
-0.0039343961
-0.0031750751
-0.002520147
-0.0019657318
-0.0014934602
-0.001135003
-0.00078816476
-0.00074130739
-0.00020810194
-0.0013870397
0.0017251767
-0.20070964
-0.20404024
-0.19787303
-0.18834787
-0.18017598
-0.1724613
-0.16428209
-0.15578714
-0.1472383
-0.13870133
-0.13020126
-0.1217946
-0.11354251
-0.10549333
-0.097686279
-0.090155232
-0.08292839
-0.076027903
-0.069470315
-0.063267113
-0.057425153
-0.05194706
-0.046831675
-0.042074496
-0.037668111
-0.033602617
-0.02986603
-0.026444677
-0.023323561
-0.02048671
-0.017917497
-0.015598931
-0.01351392
-0.011645507
-0.0099770827
-0.0084925606
-0.0071765514
-0.0060144824
-0.0049928065
-0.004098889
-0.0033218999
-0.0026506465
-0.0020807399
-0.0015942303
-0.0012198716
-0.00086195308
-0.00078521962
-0.0002657496
-0.0013017523
0.0015335041
-0.189625
-0.19405802
-0.18975461
-0.1805394
-0.17277351
-0.16588277
-0.15856938
-0.150849
-0.14300942
-0.13512817
-0.12722185
-0.11934336
-0.11155671
-0.10391446
-0.096460047
-0.089231788
-0.082262555
-0.075579111
-0.069202416
-0.063148138
-0.057427038
-0.052045358
-0.047005253
-0.042305234
-0.037940612
-0.033903921
-0.03018535
-0.026773141
-0.023653978
-0.020813349
-0.018235885
-0.015905669
-0.013806514
-0.01192222
-0.010236798
-0.0087346643
-0.0074008257
-0.0062210147
-0.0051819
-0.0042710087
-0.003477532
-0.0027904292
-0.0022047653
-0.0017036897
-0.001311763
-0.00094320438
-0.00083095153
-0.00033312132
-0.0012014745
0.0013251236
-0.18022917
-0.18225077
-0.17921388
-0.17178615
-0.16495078
-0.15882121
-0.15233298
-0.14539712
-0.13827051
-0.13104941
-0.123753
-0.11642855
-0.10913911
-0.10193939
-0.094875389
-0.087988282
-0.081314361
-0.074884119
-0.068722323
-0.062848414
-0.057276837
-0.052017361
-0.047075473
-0.04245279
-0.038147488
-0.034154724
-0.030467057
-0.027074857
-0.023966702
-0.021129749
-0.018550085
-0.016213051
-0.014103539
-0.012206258
-0.010505978
-0.0089877422
-0.0076370582
-0.0064400553
-0.0053836926
-0.0044557238
-0.0036454023
-0.002941894
-0.0023396771
-0.0018231685
-0.0014122445
-0.0010322875
-0.00088076985
-0.00040734521
-0.0010899084
0.0010953266
-0.16989163
-0.1695442
-0.16704027
-0.16171486
-0.15616714
-0.15084606
-0.14520514
-0.13913083
-0.13279308
-0.12629277
-0.11966421
-0.11295299
-0.10621902
-0.099517901
-0.092897823
-0.086402391
-0.080070834
-0.073937075
-0.068029543
-0.062371428
-0.056980921
-0.051871464
-0.04705207
-0.042527703
-0.038299665
-0.034366011
-0.030721947
-0.027360249
-0.024271647
-0.021445217
-0.018868732
-0.016529004
-0.014412192
-0.01250409
-0.010790377
-0.009256851
-0.0078896367
-0.0066753552
-0.0056013351
-0.0046556204
-0.0038275752
-0.0031066069
-0.0024866193
-0.0019533144
-0.0015217971
-0.0011287695
-0.0009354952
-0.00048504437
-0.00097483971
0.00085455771
-0.15869108
-0.15670116
-0.15432607
-0.15073377
-0.14652222
-0.14206679
-0.13727647
-0.13209181
-0.12659266
-0.1208621
-0.11494927
-0.10890217
-0.10277665
-0.096627297
-0.090503472
-0.084450414
-0.0785095
-0.072717463
-0.067105995
-0.061701792
-0.056526683
-0.051597788
-0.046927748
-0.042525043
-0.038394324
-0.034536791
-0.030950575
-0.027631131
-0.024571624
-0.021763314
-0.019195917
-0.016857954
-0.014737072
-0.01282034
-0.011094527
-0.0095463393
-0.008162652
-0.0069306914
-0.0058382512
-0.0048737413
-0.0040266989
-0.0032868064
-0.0026474411
-0.0020955371
-0.0016415639
-0.0012331339
-0.00099618172
-0.0005649967
-0.00086209831
0.00061100257
-0.14635867
-0.14376725
-0.14160946
-0.13931352
-0.13630741
-0.132741
-0.12878725
-0.1244691
-0.119809
-0.11486304
-0.10968689
-0.1043304
-0.098845208
-0.093283483
-0.08769443
-0.082123788
-0.07661394
-0.071203404
-0.065926333
-0.060812323
-0.0558864
-0.051169063
-0.046676424
-0.042420421
-0.038409093
-0.034646892
-0.031135026
-0.027871822
-0.024853092
-0.022072504
-0.019521944
-0.017191862
-0.015071605
-0.013149719
-0.011414242
-0.009852957
-0.0084536335
-0.0072042319
-0.0060931211
-0.005109166
-0.004242156
-0.0034820884
-0.0028218946
-0.0022496438
-0.0017714863
-0.0013451148
-0.0010633468
-0.00064616258
-0.00075743152
0.00037319108
-0.1332245
-0.13089122
-0.12916555
-0.12781034
-0.12579996
-0.1230888
-0.11994007
-0.11643934
-0.11258611
-0.10841111
-0.10396804
-0.09930754
-0.094476229
-0.089521708
-0.084491735
-0.079431566
-0.074383487
-0.069386637
-0.064476594
-0.059685018
-0.055039451
-0.050563243
-0.046275585
-0.042191618
-0.038322615
-0.034676224
-0.031256751
-0.02806547
-0.025100962
-0.022359459
-0.019835189
-0.017520715
-0.015407268
-0.013485057
-0.011743562
-0.010171807
-0.0087586071
-0.0074927906
-0.0063634208
-0.0053599167
-0.0044724119
-0.0036912647
-0.0030090698
-0.002414904
-0.0019110711
-0.001464162
-0.0011373064
-0.00072757561
-0.00066665736
0.00015020933
-0.1199868
-0.11831468
-0.11714194
-0.11647587
-0.11525334
-0.11331718
-0.11091922
-0.10817168
-0.10507116
-0.10163135
-0.097897602
-0.093917975
-0.089735424
-0.085392119
-0.080931629
-0.076397521
-0.071831153
-0.067271236
-0.062753673
-0.058311191
-0.05397301
-0.049764629
-0.045707746
-0.041820258
-0.038116353
-0.034606656
-0.031298446
-0.0281959
-0.025300384
-0.022610758
-0.020123695
-0.017834003
-0.015734941
-0.013818535
-0.012075864
-0.010497344
-0.009072982
-0.0077926087
-0.0066461049
-0.0056235495
-0.0047155209
-0.003912793
-0.0032077541
-0.0025903498
-0.0020596247
-0.0015896571
-0.0012182448
-0.00080861491
-0.0005949375
-4.9332975e-05
-0.10716469
-0.10621168
-0.10560346
-0.10546524
-0.1048626
-0.10359901
-0.10187833
-0.099811293
-0.097397522
-0.094641443
-0.091578283
-0.088250298
-0.084695793
-0.080952292
-0.077058711
-0.073054704
-0.068979456
-0.064870427
-0.060762891
-0.056689655
-0.0526807
-0.048762872
-0.04495968
-0.041291205
-0.037774079
-0.034421551
-0.031243612
-0.028247173
-0.02543629
-0.022812421
-0.020374704
-0.018120251
-0.016044446
-0.014141238
-0.012403434
-0.010822971
-0.0093911793
-0.0080990189
-0.0069373091
-0.0058968955
-0.0049689076
-0.0041445976
-0.0034162916
-0.0027746741
-0.0022161797
-0.0017208865
-0.0013061384
-0.00088908009
-0.00054605728
-0.00021842361
-0.095026909
-0.094697845
-0.094595621
-0.094875989
-0.094764512
-0.094067216
-0.092938967
-0.091475036
-0.089676776
-0.087543746
-0.085101786
-0.082385728
-0.079428362
-0.07626201
-0.07292092
-0.069440543
-0.06585642
-0.062203612
-0.058515938
-0.054825424
-0.051161928
-0.047552812
-0.044022654
-0.040593058
-0.037282547
-0.03410653
-0.031077343
-0.028204352
-0.025494107
-0.02295054
-0.020575192
-0.018367468
-0.016324901
-0.01444343
-0.012717669
-0.011141177
-0.0097067172
-0.008406489
-0.0072323614
-0.0061760504
-0.0052293428
-0.0043840383
-0.003632551
-0.0029662
-0.0023794704
-0.001857016
-0.0014007029
-0.00096913109
-0.00052189596
-0.00035261303
-0.083703487
-0.083860713
-0.084171063
-0.084780792
-0.08505684
-0.084824557
-0.08419985
-0.083259065
-0.082002604
-0.080426827
-0.0785496
-0.076398022
-0.073998827
-0.071378879
-0.068567219
-0.065594798
-0.062493248
-0.059294234
-0.056029136
-0.052728405
-0.049420992
-0.046133981
-0.042892266
-0.039718292
-0.036631857
-0.033650001
-0.030786963
-0.028054203
-0.025460483
-0.023012001
-0.020712559
-0.018563771
-0.016565289
-0.014715043
-0.013009496
-0.011443891
-0.0100125
-0.0087088526
-0.0075259632
-0.0064565125
-0.0054930455
-0.0046279835
-0.0038539773
-0.0031629127
-0.0025479537
-0.0019970793
-0.0015013635
-0.0010491502
-0.00052214766
-0.00045069083
-0.073248438
-0.073759342
-0.074381161
-0.075238658
-0.075813152
-0.075952567
-0.075743822
-0.07524587
-0.074456592
-0.073369618
-0.071996139
-0.070355974
-0.068469685
-0.066358593
-0.064046391
-0.061559074
-0.058924005
-0.056169153
-0.053322715
-0.05041274
-0.047466542
-0.044510205
-0.04156822
-0.038663181
-0.035815533
-0.03304338
-0.030362362
-0.02778561
-0.02532375
-0.022984967
-0.020775118
-0.018697875
-0.016754913
-0.014946107
-0.013269759
-0.011722817
-0.010301106
-0.0089995527
-0.0078123894
-0.0067333433
-0.0057558092
-0.0048729054
-0.0040776618
-0.003362503
-0.0027198362
-0.0021399574
-0.0016072354
-0.0011295533
-0.00054437075
-0.00051488758
-0.063669254
-0.064423212
-0.065264131
-0.066295015
-0.067089375
-0.067516218
-0.067640773
-0.067507579
-0.067111728
-0.06644442
-0.065511286
-0.064325674
-0.062902275
-0.061256997
-0.059408256
-0.057376994
-0.05518596
-0.052859091
-0.050421063
-0.047896921
-0.04531165
-0.042689666
-0.040054392
-0.037427916
-0.034830692
-0.032281298
-0.029796248
-0.027389875
-0.025074263
-0.022859253
-0.020752481
-0.018759473
-0.016883774
-0.015127106
-0.01348955
-0.011969739
-0.010565066
-0.009271882
-0.0080856942
-0.0070013392
-0.0060131413
-0.0051149896
-0.004300424
-0.0035624186
-0.0028931048
-0.0022843528
-0.0017171178
-0.0012105943
-0.00058439149
-0.00055047848
-0.054947593
-0.055857527
-0.056840114
-0.057979725
-0.058925558
-0.059565374
-0.059947865
-0.060106097
-0.060032851
-0.059717395
-0.059160842
-0.05837103
-0.057357388
-0.056130792
-0.054704647
-0.053094976
-0.05131987
-0.049398993
-0.047353213
-0.045204235
-0.042974198
-0.040685263
-0.038359182
-0.036016924
-0.033678346
-0.031361914
-0.029084467
-0.026861036
-0.024704725
-0.022626641
-0.020635879
-0.018739557
-0.016942885
-0.015249279
-0.013660495
-0.012176793
-0.010797103
-0.0095192054
-0.008339908
-0.007255203
-0.006260408
-0.0053502517
-0.0045189022
-0.0037599243
-0.0030655638
-0.0024287738
-0.0018295159
-0.0012922152
-0.00063700335
-0.00056480684
-0.047049588
-0.04804866
-0.049111237
-0.050306371
-0.051346152
-0.052134966
-0.052708851
-0.053091938
-0.053275441
-0.053247354
-0.053005303
-0.052552644
-0.051894332
-0.051036803
-0.04998892
-0.048762112
-0.047369983
-0.045827937
-0.044152893
-0.042362979
-0.040477177
-0.038514953
-0.036495878
-0.034439261
-0.032363804
-0.0302873
-0.028226366
-0.026196222
-0.024210516
-0.0222812
-0.020418464
-0.018630701
-0.016924535
-0.015304873
-0.013774998
-0.012336687
-0.010990344
-0.00973515
-0.0085692105
-0.0074896971
-0.0064929675
-0.0055746506
-0.0047296447
-0.0039521672
-0.0032348798
-0.0025715371
-0.0019426951
-0.0013739779
-0.00069681555
-0.00056591885
-0.039931184
-0.040969376
-0.042064749
-0.043273806
-0.04436105
-0.045245622
-0.045953977
-0.046503432
-0.046884386
-0.047084251
-0.047098163
-0.046926024
-0.046569184
-0.046030374
-0.045314528
-0.044428977
-0.043383198
-0.042188544
-0.040858047
-0.039406189
-0.037848623
-0.036201845
-0.034482872
-0.03270891
-0.030897025
-0.029063828
-0.027225202
-0.025396049
-0.02359008
-0.021819651
-0.020095639
-0.018427367
-0.016822568
-0.015287394
-0.013826457
-0.012442902
-0.011138501
-0.0099137679
-0.0087680764
-0.0076997746
-0.0067062867
-0.0057841883
-0.0049291928
-0.0041362414
-0.0033986319
-0.0027107954
-0.0020547669
-0.0014550843
-0.00075904735
-0.00056114313
-0.033542614
-0.034583699
-0.035677114
-0.036869071
-0.0379677
-0.038905177
-0.039700812
-0.04036684
-0.040893487
-0.041268209
-0.041484558
-0.041539948
-0.041433004
-0.041163532
-0.040733245
-0.040145992
-0.039407617
-0.038525796
-0.037509915
-0.036370923
-0.035121126
-0.033773932
-0.032343583
-0.030844868
-0.029292834
-0.027702485
-0.026088511
-0.024465026
-0.022845342
-0.021241766
-0.019665449
-0.018126259
-0.016632703
-0.01519189
-0.013809517
-0.012489907
-0.011236053
-0.010049698
-0.0089314145
-0.0078806988
-0.0068960428
-0.0059749979
-0.0051141554
-0.0043092494
-0.0035543647
-0.002844586
-0.0021637893
-0.0015344658
-0.00082006911
-0.00055598969
-0.027831769
-0.028850594
-0.029917573
-0.031070463
-0.032153652
-0.033110742
-0.033955773
-0.034697265
-0.035325775
-0.035829303
-0.036200582
-0.036435392
-0.03653045
-0.036483407
-0.036293484
-0.035961718
-0.035490911
-0.034885549
-0.034151752
-0.0332972
-0.032330997
-0.031263495
-0.030106087
-0.028870977
-0.027570931
-0.026219024
-0.024828378
-0.023411912
-0.02198211
-0.020550807
-0.01912901
-0.017726742
-0.016352927
-0.015015305
-0.013720388
-0.01247344
-0.011278488
-0.010138361
-0.0090547314
-0.0080281783
-0.0070582349
-0.0061434337
-0.0052812824
-0.0044683638
-0.0036996443
-0.0029708931
-0.0022678613
-0.001610903
-0.00087757181
-0.00055364327
-0.022746477
-0.023726602
-0.024750942
-0.025850274
-0.0268991
-0.027850946
-0.028715989
-0.029500078
-0.030194449
-0.030788003
-0.031273256
-0.031645063
-0.031898945
-0.032031098
-0.032038944
-0.031921381
-0.031678792
-0.031313028
-0.030827416
-0.030226744
-0.029517192
-0.028706229
-0.027802466
-0.026815488
-0.025755663
-0.024633924
-0.023461555
-0.022249956
-0.02101042
-0.019753931
-0.018490961
-0.017231308
-0.015983947
-0.014756918
-0.013557239
-0.012390856
-0.011262609
-0.01017623
-0.0091343555
-0.0081385506
-0.0071893314
-0.0062861888
-0.0054275571
-0.0046109023
-0.0038321221
-0.0030877203
-0.0023651951
-0.0016831381
-0.00093038146
-0.0005551117
-0.018236345
-0.019168035
-0.020140033
-0.021177302
-0.022179356
-0.023108286
-0.023971428
-0.02477273
-0.025504309
-0.026156193
-0.026721119
-0.027193566
-0.027568437
-0.027841072
-0.028007711
-0.028065738
-0.028013724
-0.027851454
-0.02757998
-0.027201649
-0.026720091
-0.026140172
-0.025467912
-0.024710375
-0.023875531
-0.022972096
-0.022009349
-0.020996948
-0.019944723
-0.018862485
-0.017759837
-0.016645999
-0.015529652
-0.014418798
-0.013320653
-0.01224156
-0.011186923
-0.010161172
-0.0091677344
-0.0082090335
-0.0072864778
-0.0064004631
-0.00555033
-0.0047344351
-0.0039496225
-0.0031931758
-0.0024541675
-0.0017499612
-0.00097806273
-0.00055985412
-0.014253848
-0.015132428
-0.016047378
-0.017018765
-0.017966895
-0.018861199
-0.019706914
-0.020506621
-0.021253419
-0.021938563
-0.022555297
-0.023098128
-0.023561778
-0.023941205
-0.024231987
-0.024430532
-0.024534152
-0.024541111
-0.024450703
-0.024263314
-0.023980447
-0.023604726
-0.023139863
-0.022590602
-0.021962634
-0.02126249
-0.020497406
-0.019675173
-0.018803979
-0.017892233
-0.016948396
-0.015980814
-0.01499756
-0.014006289
-0.013014109
-0.012027473
-0.011052092
-0.01009286
-0.0091538054
-0.0082380492
-0.007347773
-0.0064841933
-0.0056475063
-0.0048369376
-0.004050263
-0.0032855752
-0.0025333645
-0.001810273
-0.0010205095
-0.00056657257
-0.010755729
-0.011580188
-0.012437077
-0.013342279
-0.014233401
-0.015086138
-0.015904146
-0.016689018
-0.017434835
-0.018134091
-0.018780705
-0.019369469
-0.01989524
-0.020352948
-0.020737905
-0.02104599
-0.021273724
-0.021418335
-0.021477841
-0.021451134
-0.02133803
-0.021139304
-0.020856704
-0.020492932
-0.020051609
-0.019537214
-0.018954999
-0.018310879
-0.017611316
-0.016863178
-0.016073595
-0.015249811
-0.014399034
-0.013528298
-0.012644328
-0.011753416
-0.010861319
-0.0099731622
-0.0090933627
-0.0082255632
-0.007372573
-0.0065363191
-0.0057177732
-0.00491698
-0.0041326082
-0.0033635658
-0.0026016389
-0.0018631414
-0.0010576736
-0.00057387193
-0.0077031066
-0.0084751736
-0.0092757815
-0.010117214
-0.010951472
-0.011759568
-0.012543944
-0.013305452
-0.014039106
-0.014738577
-0.015398525
-0.016014185
-0.016580744
-0.017093341
-0.017547316
-0.017938356
-0.018262568
-0.018516546
-0.018697455
-0.018803117
-0.018832079
-0.018783669
-0.018658034
-0.018456157
-0.018179862
-0.017831786
-0.017415342
-0.016934653
-0.016394469
-0.015800073
-0.015157162
-0.01447173
-0.013749935
-0.012997976
-0.012221959
-0.011427778
-0.010620997
-0.009806743
-0.0089896137
-0.0081735855
-0.0073619347
-0.0065571668
-0.0057609256
-0.0049739988
-0.0041958873
-0.0034262954
-0.0026582086
-0.0019078787
-0.0010894823
-0.00058064332
-0.0050626073
-0.0057856622
-0.0065335394
-0.0073153697
-0.0080951128
-0.0088582782
-0.009606356
-0.010339629
-0.011053943
-0.011744049
-0.012405346
-0.013033578
-0.013624365
-0.014173205
-0.014675653
-0.015127443
-0.015524547
-0.015863241
-0.016140178
-0.016352475
-0.016497783
-0.016574351
-0.016581086
-0.016517586
-0.016384176
-0.016181914
-0.015912583
-0.015578668
-0.015183307
-0.014730236
-0.014223706
-0.013668395
-0.013069302
-0.012431644
-0.011760735
-0.011061875
-0.010340233
-0.0096007374
-0.0088479659
-0.008086046
-0.0073185561
-0.0065484367
-0.0057778836
-0.0050083312
-0.0042400328
-0.0034734458
-0.00270267
-0.0019440508
-0.0011158321
-0.00058615319
-0.0028083301
-0.003487412
-0.0041877847
-0.0049159065
-0.0056456026
-0.0063661276
-0.007078211
-0.0077816802
-0.008473103
-0.0091481781
-0.0098029918
-0.010433803
-0.011036701
-0.011607606
-0.012142397
-0.012637004
-0.013087459
-0.013489945
-0.013840868
-0.014136929
-0.014375194
-0.01455316
-0.014668818
-0.014720709
-0.014707964
-0.014630342
-0.01448825
-0.01428274
-0.014015508
-0.013688857
-0.013305659
-0.012869294
-0.012383577
-0.011852674
-0.011281005
-0.010673147
-0.010033726
-0.009367305
-0.0086782781
-0.0079707589
-0.0072484719
-0.0065146492
-0.0057719102
-0.0050222257
-0.0042665055
-0.0035058931
-0.0027355113
-0.0019718736
-0.0011369308
-0.00059015544
-0.00091458479
-0.0015548838
-0.0022133506
-0.0028940528
-0.0035788953
-0.0042602467
-0.0049382269
-0.0056122869
-0.0062795952
-0.0069366555
-0.0075801616
-0.0082068499
-0.0088132653
-0.0093957575
-0.0099505711
-0.01047391
-0.010961975
-0.011411009
-0.011817352
-0.012177503
-0.012488184
-0.012746402
-0.012949514
-0.013095285
-0.01318194
-0.013208218
-0.013173406
-0.013077364
-0.012920547
-0.012703997
-0.012429338
-0.012098738
-0.011714872
-0.011280859
-0.010800194
-0.010276664
-0.0097142576
-0.009117063
-0.0084891625
-0.0078345216
-0.0071568748
-0.0064596127
-0.0057456523
-0.0050173851
-0.0042762708
-0.0035240531
-0.0027567747
-0.0019911317
-0.0011524825
-0.00059225829
0.00061483166
6.1869891e-06
-0.00061773165
-0.0012592412
-0.0019066404
-0.0025547334
-0.0032031456
-0.0038510291
-0.004496034
-0.0051353167
-0.0057660749
-0.0063854557
-0.0069904063
-0.0075776705
-0.008143846
-0.0086854272
-0.0091988351
-0.0096804508
-0.01012666
-0.010533905
-0.010898737
-0.011217877
-0.011488271
-0.011707152
-0.011872099
-0.011981089
-0.012032553
-0.012025413
-0.011959119
-0.011833673
-0.011649633
-0.011408118
-0.011110785
-0.010759799
-0.010357784
-0.0099077583
-0.009413063
-0.0088772722
-0.008304095
-0.0076972685
-0.0070604426
-0.0063970629
-0.0057102354
-0.0050026622
-0.0042762414
-0.0035332155
-0.0027704248
-0.002004717
-0.0011645159
-0.00059352204
0.0018234763
0.0012409247
0.00064532467
3.596771e-05
-0.00058041648
-0.0012005709
-0.0018237422
-0.0024488355
-0.0030738662
-0.0036964988
-0.0043143314
-0.0049248432
-0.0055253138
-0.00611282
-0.0066842685
-0.007236423
-0.0077659255
-0.008269323
-0.0087431021
-0.00918373
-0.0095877009
-0.0099515862
-0.010272088