/*--------------------------------*- C++ -*----------------------------------*\
  =========                 |
  \\      /  F ield         | OpenFOAM: The Open Source CFD Toolbox
   \\    /   O peration     | Website:  https://openfoam.org
    \\  /    A nd           | Version:  6
     \\/     M anipulation  |
\*---------------------------------------------------------------------------*/
FoamFile
{
    version     2.0;
    format      ascii;
    class       volVectorField;
    location    "151";
    object      U_0;
}
// * * * * * * * * * * * * * * * * * * * * * * * * * * * * * * * * * * * * * //

dimensions      [0 1 -1 0 0 0 0];

internalField   nonuniform List<vector> 
9200
(
(0.001039361 0.0014199744 -5.9201959e-20)
(0.013676132 -0.0020584009 4.6042635e-20)
(0.038313307 -0.005866628 -3.8501821e-20)
(0.072274674 -0.0097635911 -6.0257871e-20)
(0.11376509 -0.013490141 1.882701e-20)
(0.16158137 -0.016605798 3.2743951e-20)
(0.2146721 -0.018817452 -1.226804e-20)
(0.27206684 -0.019974084 9.2688861e-21)
(0.33285714 -0.020011444 1.6803458e-20)
(0.39616455 -0.018929301 1.4848104e-21)
(0.46111678 -0.016780094 -2.1456387e-20)
(0.52683824 -0.013658039 2.0670055e-20)
(0.59245219 -0.0096883375 -4.042224e-20)
(0.65709293 -0.0050161492 -2.1133959e-20)
(0.71992644 0.00020515278 5.9046677e-21)
(0.78017682 0.0058236475 -2.5131752e-20)
(0.83717245 0.011712323 2.52172e-20)
(0.89047065 0.017917976 2.2243306e-20)
(0.9396726 0.024572826 -2.9927497e-22)
(0.98205373 0.028292749 -1.6691597e-21)
(0.0052522056 -0.0013462866 -1.7059385e-20)
(0.026962597 -0.0089890745 3.9747792e-20)
(0.061670308 -0.014809842 2.3576346e-20)
(0.1062952 -0.019172375 -1.1569779e-19)
(0.1587361 -0.022214128 -1.2727116e-20)
(0.21753411 -0.023720842 7.3297213e-20)
(0.2813737 -0.023595277 -3.5476471e-20)
(0.34900691 -0.02186917 -8.3905733e-21)
(0.41924026 -0.018645752 3.4287613e-20)
(0.49091065 -0.014081094 -4.3259678e-20)
(0.56287368 -0.00837623 -3.0338559e-20)
(0.63400996 -0.0017669017 7.1921638e-20)
(0.7032449 0.0054880563 3.8294155e-20)
(0.7695775 0.01311826 -6.7976772e-20)
(0.83211421 0.020851672 1.4623744e-20)
(0.89010216 0.028419252 -3.6733532e-20)
(0.94297096 0.035569174 -1.3777232e-20)
(0.99043408 0.042140337 7.0975086e-20)
(1.0323578 0.047714707 2.9642169e-20)
(1.0669365 0.049139041 -8.3478534e-20)
(0.010858464 -0.0040424343 3.6773521e-20)
(0.043953546 -0.015431136 2.50474e-21)
(0.090515687 -0.022552375 2.2341757e-20)
(0.14711178 -0.026497478 9.8116995e-22)
(0.21134309 -0.027886441 -4.0774023e-20)
(0.28146838 -0.026795281 1.8576433e-20)
(0.35587127 -0.023382915 1.3420328e-20)
(0.4329911 -0.017921744 -5.0327806e-20)
(0.51132596 -0.010735879 5.7261984e-20)
(0.58942747 -0.0021841316 1.425673e-20)
(0.66591062 0.0073476289 -5.4300861e-20)
(0.73948192 0.017459958 -1.8237467e-20)
(0.80897762 0.027756224 9.0591515e-21)
(0.87340433 0.037858895 2.344482e-20)
(0.93197533 0.047423624 -1.1362555e-20)
(0.98413538 0.056148506 2.7877831e-20)
(1.0295757 0.063788656 -2.0188308e-20)
(1.0682662 0.070203821 -7.0123886e-20)
(1.1003337 0.075118752 -2.3796391e-20)
(1.1249127 0.076640563 4.865997e-20)
(0.017957267 -0.0064221856 2.4508053e-20)
(0.064777169 -0.020694867 5.1039312e-20)
(0.1248526 -0.028060947 1.9881728e-20)
(0.19447013 -0.030464191 1.2990114e-20)
(0.27094996 -0.029094988 1.7275731e-20)
(0.35224961 -0.024389143 -4.7720258e-20)
(0.43643237 -0.016826153 -2.5646907e-20)
(0.52162123 -0.006976868 0)
(0.60603025 0.0045668157 1.3920674e-20)
(0.68798849 0.017211493 -5.8523776e-21)
(0.7659767 0.030373658 -9.7935213e-20)
(0.83867606 0.043499337 -1.5774846e-20)
(0.90501689 0.056086285 6.510343e-20)
(0.96421735 0.067703762 4.8439862e-22)
(1.0158051 0.078007295 -1.5725624e-21)
(1.0596171 0.086746322 2.1957578e-20)
(1.0957788 0.093771704 -5.2647471e-21)
(1.1246814 0.099064754 -6.1029969e-20)
(1.1468661 0.10259645 -4.5851428e-20)
(1.162297 0.10341317 6.9520732e-20)
(0.026579489 -0.0082057125 -3.9194236e-21)
(0.089344238 -0.024033576 -5.125636e-21)
(0.16430792 -0.030265088 5.6599498e-20)
(0.24758176 -0.02981014 1.8539354e-20)
(0.33624235 -0.024513164 -3.1955123e-20)
(0.42795218 -0.015240009 1.2163859e-20)
(0.52047371 -0.0028515245 2.6402917e-21)
(0.61166482 0.01173692 3.3609255e-20)
(0.69954849 0.027639949 5.6599652e-21)
(0.78236985 0.044028554 -1.3204792e-20)
(0.8586556 0.06014748 6.0154256e-20)
(0.92727069 0.075340192 -5.8009516e-20)
(0.98745834 0.089072542 -1.3216657e-19)
(1.0388546 0.10094865 -5.577323e-21)
(1.081474 0.11071667 8.3151081e-20)
(1.115667 0.11826358 0)
(1.1420562 0.1236053 1.0118991e-20)
(1.1614681 0.12688998 -1.5459829e-20)
(1.1748191 0.12829807 -8.5994938e-21)
(1.1826684 0.12744848 2.0992298e-20)
(0.036666996 -0.0090896042 -5.4309124e-21)
(0.11731537 -0.024685425 4.3578811e-21)
(0.20811914 -0.02814027 -8.7629969e-21)
(0.30515767 -0.023415061 2.8472437e-20)
(0.40533623 -0.013075707 -2.9392718e-20)
(0.50607249 0.0015224921 -1.6927057e-20)
(0.60490608 0.019095008 3.7364288e-20)
(0.6995509 0.03836511 4.7595481e-21)
(0.78800534 0.058167483 -2.4436149e-20)
(0.86863554 0.077482817 6.9867755e-20)
(0.94024125 0.095458422 5.2391328e-22)
(1.0020971 0.1114313 -8.0444597e-20)
(1.0539584 0.1249426 0)
(1.0960288 0.13573714 3.9542268e-20)
(1.1288936 0.14374802 5.523623e-21)
(1.1534291 0.14906846 -7.7566675e-20)
(1.1707003 0.15191861 -1.958699e-20)
(1.1818635 0.15262311 -1.2467676e-20)
(1.1880602 0.15152544 -1.4709441e-20)
(1.190147 0.14858426 4.0420659e-20)
(0.048058973 -0.0087674274 -1.7277977e-20)
(0.14808341 -0.021932052 -2.2198449e-21)
(0.25514122 -0.020797909 3.0380542e-20)
(0.36546457 -0.010412874 3.7484354e-20)
(0.47590513 0.0059015042 -1.9944766e-20)
(0.58374375 0.02626922 -6.9163174e-20)
(0.68644309 0.048977115 -2.7995871e-20)
(0.78176338 0.072417682 7.8929405e-20)
(0.86790339 0.09521235 8.577855e-21)
(0.94359063 0.11624945 -2.4873541e-20)
(1.0081273 0.13469807 1.3642231e-20)
(1.0613885 0.15001531 -4.3194717e-21)
(1.1037707 0.1619363 0)
(1.1360988 0.17044393 2.720357e-20)
(1.1595059 0.17572268 -7.9322673e-20)
(1.1753032 0.17810323 -3.1475632e-20)
(1.1848581 0.17800762 8.1054844e-20)
(1.1894931 0.17590889 -4.2970042e-21)
(1.1904039 0.17225498 3.5561171e-21)
(1.1885089 0.16719234 2.7111667e-20)
(0.060485374 -0.0069573815 -3.2414649e-20)
(0.18077808 -0.015170424 -8.1624433e-20)
(0.30388987 -0.0075835761 2.5797631e-21)
(0.42642635 0.0097033092 7.0161926e-20)
(0.54535247 0.03263151 6.2424489e-20)
(0.65798215 0.058819999 -7.1574648e-20)
(0.7619101 0.086176457 -2.8273277e-22)
(0.85518427 0.11285224 8.5522784e-20)
(0.93645487 0.13737828 4.8828199e-20)
(1.0050429 0.15869357 -5.4218571e-20)
(1.060937 0.17613546 -9.2334491e-20)
(1.1047256 0.18941332 -3.1589922e-21)
(1.1374772 0.19855916 4.2127995e-20)
(1.1605886 0.20385823 -6.6056492e-21)
(1.1756259 0.2057698 -1.2868825e-20)
(1.1841787 0.20484875 1.9690864e-20)
(1.1877437 0.20167848 4.3880754e-20)
(1.1876463 0.19682535 -4.3859564e-20)
(1.1849963 0.19077827 -1.0232235e-19)
(1.1806258 0.1837732 2.4566971e-20)
(0.073537356 -0.0034329836 -3.4979801e-20)
(0.21422727 -0.003989047 -1.738863e-19)
(0.3525172 0.01183936 8.210338e-20)
(0.48562883 0.037018331 9.2767672e-20)
(0.61085483 0.066835555 5.797067e-20)
(0.72576844 0.098481182 8.610729e-21)
(0.82834931 0.12959695 -1.0624034e-19)
(0.91719132 0.15824266 0)
(0.99162881 0.18302808 -6.8748795e-20)
(1.0517534 0.20311196 -1.5202459e-20)
(1.0983397 0.21814845 5.4703623e-20)
(1.132702 0.22821062 1.0973413e-20)
(1.1565122 0.23369234 -4.5613986e-20)
(1.1716079 0.23519915 -4.9081501e-20)
(1.1798214 0.23344298 2.4287755e-20)
(1.182846 0.22915281 4.4823029e-20)
(1.1821498 0.2230094 -5.5600578e-20)
(1.1789369 0.21560772 -1.0751154e-19)
(1.1741477 0.20742171 -3.151362e-21)
(1.1684575 0.19871825 2.7046481e-20)
(0.086650602 0.0019613857 -3.5449154e-21)
(0.24696062 0.01181664 8.7913357e-20)
(0.39884807 0.037492333 -1.6479203e-20)
(0.54040554 0.071218424 -8.4309318e-20)
(0.66950008 0.10778899 4.5164463e-20)
(0.78422071 0.14411549 4.9175541e-20)
(0.88319067 0.17775673 5.5356922e-21)
(0.96578001 0.20688491 -9.9502745e-20)
(1.0321776 0.230388 -2.5048849e-21)
(1.0833341 0.24781546 5.0503685e-20)
(1.1208082 0.25926288 5.9854925e-21)
(1.146557 0.26523601 -1.9717265e-20)
(1.1627118 0.26650509 -7.5704838e-20)
(1.1713775 0.26396592 -6.2554153e-21)
(1.1744772 0.25852395 4.3533471e-20)
(1.1736557 0.2510105 3.7022112e-20)
(1.1702392 0.24213352 1.9793487e-20)
(1.1652411 0.23245829 -5.2995017e-20)
(1.1594022 0.22240369 1.2957456e-20)
(1.1532259 0.21223748 8.2659323e-20)
(-0.0012932645 0.0014346626 -1.1234565e-21)
(-0.004745971 0.0031874213 2.0647017e-21)
(-0.010771382 0.0041359123 8.7946934e-22)
(-0.017754324 0.0045395444 -2.4410812e-21)
(-0.024740367 0.0045654244 -1.4114962e-21)
(-0.031299653 0.0043260452 1.546041e-21)
(-0.037161396 0.0039035432 -6.8701089e-21)
(-0.042147516 0.0033577249 -5.9573593e-21)
(-0.046157852 0.0027313823 1.117205e-20)
(-0.049146264 0.0020548294 -9.7427921e-21)
(-0.051100724 0.0013492968 -1.9833539e-22)
(-0.052030506 0.00062941573 3.6673566e-21)
(-0.051957788 -9.48984e-05 -6.3295942e-22)
(-0.050911917 -0.0008169422 2.2818843e-20)
(-0.048925794 -0.0015318596 3.0401231e-22)
(-0.046035335 -0.0022351921 -4.0883057e-20)
(-0.042281764 -0.0029222896 7.5385983e-21)
(-0.037703378 -0.0035910638 2.3864224e-20)
(-0.032308593 -0.0042400156 -4.3852589e-20)
(-0.026156822 -0.0048211461 -2.7739343e-20)
(-0.0016522036 0.0041808753 -5.3716071e-21)
(-0.0053974926 0.0092681575 1.086546e-20)
(-0.011218532 0.012007467 -1.0191538e-20)
(-0.01765806 0.013153788 3.9229799e-21)
(-0.023856476 0.013195435 4.8121677e-21)
(-0.029433368 0.012462743 7.1324565e-22)
(-0.034152375 0.011197028 -2.2509608e-20)
(-0.037860433 0.0095739051 -2.0370276e-21)
(-0.040474351 0.0077189891 2.0163617e-20)
(-0.041958967 0.0057212254 -5.0473804e-21)
(-0.042308985 0.0036428522 -2.1762675e-20)
(-0.041537357 0.0015266927 4.8973366e-21)
(-0.039667713 -0.0005983337 2.2635514e-20)
(-0.036729059 -0.0027127979 1.0308434e-20)
(-0.032751983 -0.0048027353 2.185438e-20)
(-0.027769087 -0.0068555644 -1.9770815e-20)
(-0.021824674 -0.0088582859 -2.167304e-20)
(-0.014966107 -0.010804302 2.118472e-20)
(-0.0071288056 -0.01267909 2.6810491e-20)
(0.0018745626 -0.014317324 1.5854835e-20)
(-0.002303434 0.0065602467 -4.3568761e-21)
(-0.0065392365 0.014480225 -5.6387621e-21)
(-0.011892152 0.018710579 3.0723897e-22)
(-0.017211127 0.020428216 1.0959772e-21)
(-0.021819174 0.020400356 6.6918502e-21)
(-0.025431073 0.019151692 1.0665184e-20)
(-0.02787726 0.017066306 -3.7227781e-21)
(-0.029053289 0.014423791 -1.8896214e-20)
(-0.028909043 0.01142435 6.5413385e-21)
(-0.027431039 0.0082098915 1.2862617e-20)
(-0.024627681 0.0048797502 5.8341038e-21)
(-0.020520047 0.0015021998 1.8159173e-20)
(-0.015135892 -0.0018769158 1.7295981e-21)
(-0.0085052659 -0.0052273149 -3.3864659e-20)
(-0.00065671547 -0.0085276926 1.2020257e-21)
(0.0083812449 -0.011759208 -2.2139293e-20)
(0.018557152 -0.014904212 -2.4466413e-20)
(0.029802528 -0.017953887 4.5819918e-20)
(0.042305382 -0.02085527 2.5349469e-20)
(0.05673907 -0.023247938 1.2240252e-22)
(-0.0031290336 0.0083689872 -5.2833189e-21)
(-0.0078964124 0.018336548 -8.4815553e-21)
(-0.012439004 0.023587851 4.3593109e-21)
(-0.016026553 0.0256097 4.1463539e-21)
(-0.018235037 0.025382781 2.0105733e-21)
(-0.018912655 0.023589349 7.32102e-21)
(-0.017984706 0.020730289 9.3125077e-21)
(-0.015416678 0.01717038 -1.3511422e-21)
(-0.01120699 0.013171301 -1.1481984e-20)
(-0.0053751436 0.0089189026 -2.907197e-20)
(0.0020482397 0.004543391 6.1892689e-23)
(0.011026681 0.00013424664 4.0697959e-20)
(0.021522449 -0.0042490345 -1.8383232e-20)
(0.033498133 -0.0085676887 -1.2296132e-20)
(0.04692086 -0.012795671 5.5348636e-22)
(0.061760516 -0.016912003 3.230277e-20)
(0.077953515 -0.020901841 -1.4829613e-20)
(0.095392853 -0.024763573 -5.3339396e-20)
(0.11439913 -0.028379941 4.5765192e-20)
(0.13634618 -0.031073344 3.3013306e-20)
(-0.0039704165 0.0094657505 -6.8788849e-22)
(-0.0090916711 0.020487828 -1.2534767e-20)
(-0.012364483 0.026159129 -3.4144622e-20)
(-0.013552544 0.028143378 -5.7241822e-21)
(-0.012533229 0.027555039 -3.6222759e-21)
(-0.0093166921 0.025188084 6.3051212e-21)
(-0.0039455837 0.021627416 -4.6462116e-21)
(0.0035262252 0.017298947 -8.8070542e-21)
(0.013036961 0.01250872 2.1899771e-20)
(0.024521433 0.0074743903 5.0567211e-21)
(0.037915788 0.0023488297 -2.5290372e-20)
(0.053157761 -0.0027628816 1.107831e-20)
(0.070187258 -0.0077909965 0)
(0.088947054 -0.012691451 1.2089615e-20)
(0.109386 -0.017437094 -9.7016505e-21)
(0.13145808 -0.022010099 -1.4337173e-20)
(0.15507484 -0.026408879 -1.5738857e-21)
(0.18006849 -0.030659685 -2.2181695e-21)
(0.20685442 -0.034576832 4.6147218e-20)
(0.23766474 -0.037020199 -1.0470189e-20)
(-0.004645105 0.0097808795 -7.5356833e-21)
(-0.0096772614 0.020747912 2.4516463e-20)
(-0.011064383 0.026161012 -1.0499377e-20)
(-0.0090968173 0.027724475 -2.7469349e-20)
(-0.0039796784 0.026601714 -2.7548207e-20)
(0.0040962613 0.023648412 -1.4921605e-20)
(0.014954273 0.019496443 -6.905981e-22)
(0.028436412 0.01460467 5.5499913e-21)
(0.044403387 0.0093033877 1.9615926e-20)
(0.062730807 0.0038283319 7.3531043e-21)
(0.083304707 -0.0016548649 -7.1862393e-21)
(0.10601945 -0.0070323759 -2.0102328e-21)
(0.13077415 -0.012229264 -3.8191821e-20)
(0.15747012 -0.017199949 -1.2693683e-20)
(0.18601279 -0.021919962 1.8750673e-20)
(0.21631269 -0.026379978 -2.1021748e-20)
(0.24823328 -0.030602518 -8.9730883e-21)
(0.28151986 -0.034670939 3.0440557e-20)
(0.31660836 -0.03836519 5.0472231e-20)
(0.35665163 -0.039964508 3.3559796e-21)
(-0.0049617745 0.0093140128 1.6783338e-20)
(-0.009166274 0.019097733 1.4467968e-20)
(-0.0078593529 0.023563389 5.114561e-20)
(-0.0018584979 0.024328957 2.3388041e-20)
(0.0082958057 0.022523782 1.8251819e-22)
(0.022222075 0.019014365 -3.9388546e-20)
(0.039597639 0.014440894 -2.4313918e-20)
(0.060148174 0.0092662933 1.0465839e-20)
(0.083639468 0.0038231355 1.4401619e-20)
(0.10986714 -0.0016514199 -1.3113738e-20)
(0.13864617 -0.0069911598 -4.4038827e-20)
(0.16980236 -0.012083028 2.9618577e-20)
(0.20316482 -0.016854372 2.0020601e-20)
(0.23856036 -0.021264242 -2.7551233e-20)
(0.27581334 -0.025296684 1.1650171e-20)
(0.31474928 -0.028957485 2.4197685e-20)
(0.35514677 -0.032303406 8.0724222e-21)
(0.39663533 -0.035507069 -1.1764255e-20)
(0.43957862 -0.038393076 -1.4190331e-20)
(0.48798685 -0.038634877 5.8728159e-21)
(-0.0047307799 0.0081236829 1.1093871e-20)
(-0.0070585955 0.015671187 -2.3352784e-20)
(-0.0020293334 0.018562037 8.6200686e-21)
(0.0090325958 0.018216216 3.3588049e-20)
(0.025256494 0.015651123 5.2124463e-20)
(0.04606654 0.011695554 2.0276556e-20)
(0.070984806 0.0069608784 -5.8639514e-21)
(0.099602324 0.0018828504 -1.2286307e-20)
(0.13156942 -0.0032273278 -6.2057644e-21)
(0.16657626 -0.0081498173 3.4240913e-20)
(0.20433496 -0.012733512 -4.5104558e-21)
(0.24456569 -0.016879411 -1.6643345e-20)
(0.28698567 -0.020528943 -1.9693619e-20)
(0.3313011 -0.023656704 -4.7443865e-20)
(0.37720585 -0.02626586 2.3238767e-20)
(0.4243891 -0.028388225 -1.4096025e-20)
(0.47250128 -0.030128022 2.5993484e-20)
(0.52103786 -0.031783629 2.104089e-20)
(0.57021576 -0.033351159 -8.5570598e-20)
(0.6247111 -0.032059363 -1.0805977e-22)
(-0.0037710514 0.0063146437 2.1925102e-20)
(-0.0028657471 0.010735093 -2.6165596e-20)
(0.0071421647 0.011564121 -4.50134e-20)
(0.024450351 0.0099249557 -2.7253845e-20)
(0.047871043 0.0066522501 -2.0439913e-21)
(0.076628983 0.0024905366 1.3050116e-20)
(0.11007711 -0.0020155026 -2.8337704e-21)
(0.14765255 -0.0064880397 1.8118573e-20)
(0.18886157 -0.010663669 8.8685765e-21)
(0.23325269 -0.014362617 -1.1380196e-20)
(0.28039237 -0.017469177 8.8779406e-21)
(0.32984706 -0.019917066 -2.3903323e-20)
(0.38116998 -0.021678991 8.0505036e-21)
(0.43389216 -0.022760203 1.6756437e-20)
(0.48752082 -0.023194665 -2.6395199e-21)
(0.54154876 -0.023047292 1.6619012e-21)
(0.59543718 -0.022469884 -3.1957259e-22)
(0.64851967 -0.021870581 1.9590479e-20)
(0.70082433 -0.021445579 4.0434119e-21)
(0.75745352 -0.018499641 -5.7340679e-22)
(-0.0019110079 0.0040273465 2.3692166e-20)
(0.0038694687 0.004676502 5.7160096e-20)
(0.020315405 0.0031879268 -4.9244336e-20)
(0.045178455 0.00029436637 -9.9454363e-21)
(0.076965415 -0.0034242362 2.0256383e-20)
(0.1146966 -0.0073536965 2.143376e-21)
(0.15753932 -0.011055095 -2.9815219e-20)
(0.20474893 -0.014244305 6.9848203e-21)
(0.25565026 -0.016738123 7.1098077e-21)
(0.30960563 -0.018427181 -2.6254137e-20)
(0.36598753 -0.019260353 1.2927368e-21)
(0.42416078 -0.019232153 -3.7174202e-20)
(0.48347236 -0.018372521 -3.6341109e-20)
(0.54324714 -0.016738629 6.5683662e-20)
(0.60278974 -0.014407691 5.5627652e-21)
(0.66139058 -0.011476325 -1.5188851e-20)
(0.71830967 -0.0081025114 1.9364022e-20)
(0.77270092 -0.0045933732 -9.1888407e-22)
(0.82409031 -0.00096859913 2.0364605e-20)
(0.87622166 0.0043274715 -1.9554239e-20)
(-0.018836229 -0.0050997379 5.8352342e-20)
(-0.010224407 -0.0056349649 1.5783742e-20)
(-0.00022087778 -0.0060689213 -3.5139735e-20)
(0.010823621 -0.0063341539 1.6790329e-20)
(0.022642947 -0.006512094 0)
(0.03517846 -0.0066301397 0)
(0.048370341 -0.0066910256 -2.2975079e-20)
(0.062138869 -0.0067025946 -1.6502965e-20)
(0.076413635 -0.0066742315 1.9122716e-20)
(0.091135129 -0.0066127252 1.817415e-20)
(0.10624838 -0.0065232675 1.0524301e-21)
(0.12170158 -0.006410422 -1.03177e-20)
(0.13744643 -0.0062781472 8.3269464e-21)
(0.15343772 -0.0061297906 1.8233835e-20)
(0.16963268 -0.0059682153 -5.227468e-21)
(0.18599066 -0.0057959069 -1.0175003e-20)
(0.20247292 -0.0056150364 -4.3196163e-21)
(0.21904241 -0.0054275129 -4.4257617e-21)
(0.23566373 -0.0052350284 7.3667428e-22)
(0.252303 -0.0050390935 1.228615e-21)
(0.26892788 -0.004841063 2.5666634e-21)
(0.2855076 -0.0046421567 6.6540086e-21)
(0.30201296 -0.004443474 2.489307e-22)
(0.31841644 -0.0042460041 -3.451509e-21)
(0.33469218 -0.0040506348 1.5558556e-22)
(0.35081613 -0.0038581577 -5.7710543e-22)
(0.36676601 -0.0036692726 1.2434542e-21)
(0.38252145 -0.003484592 1.0522526e-21)
(0.39806391 -0.0033046445 -1.2988317e-21)
(0.41337677 -0.0031298781 -1.2218569e-22)
(0.42844531 -0.002960665 3.5728075e-23)
(0.44325669 -0.0027973051 -3.5188542e-22)
(0.4577999 -0.0026400316 -4.0567827e-22)
(0.47206577 -0.0024890158 5.5429568e-23)
(0.48604688 -0.0023443731 -1.3809666e-22)
(0.49973756 -0.002206169 -2.2344083e-22)
(0.51313379 -0.0020744258 2.5573277e-22)
(0.52623324 -0.0019491292 2.950385e-22)
(0.53903511 -0.0018302376 -8.2845489e-24)
(0.55154053 -0.0017176856 -1.5520758e-22)
(0.56375148 -0.0016114125 3.040615e-23)
(0.57567456 -0.0015113178 -4.0148409e-23)
(0.58730998 -0.0014174728 9.2231235e-23)
(0.59868676 -0.0013295412 2.1970676e-23)
(0.60975928 -0.0012488071 -1.1402338e-22)
(0.62071969 -0.0011720598 -6.7677136e-24)
(0.63109005 -0.0011115344 -6.9019828e-26)
(0.64238203 -0.0010342578 -3.5715142e-24)
(0.65046189 -0.0010511526 2.9450862e-23)
(0.66704989 -0.00087595276 3.6060116e-22)
(0.010446201 -0.015017718 -1.274689e-20)
(0.018180093 -0.016641131 -6.3302647e-20)
(0.027779686 -0.017915544 -3.0542112e-20)
(0.038385699 -0.018672211 3.8476226e-20)
(0.049621632 -0.019183737 1.4662695e-20)
(0.061507373 -0.01952959 -1.8205046e-20)
(0.074013674 -0.019710031 4.672245e-21)
(0.087063641 -0.019746666 2.5447341e-20)
(0.10059424 -0.019667462 9.197886e-23)
(0.11455525 -0.019491889 -7.6591812e-21)
(0.12889856 -0.019234555 -1.3021078e-20)
(0.14357755 -0.018908514 -8.5246023e-21)
(0.15854835 -0.018525181 1.7772453e-20)
(0.17376944 -0.018094216 8.9296561e-21)
(0.18920107 -0.0176239 -1.6522527e-20)
(0.20480505 -0.017121459 -6.0391012e-21)
(0.22054465 -0.01659323 3.2145203e-21)
(0.2363845 -0.01604481 8.3716813e-21)
(0.25229053 -0.015481177 6.9832899e-21)
(0.26823 -0.014906793 -6.9728044e-21)
(0.28417149 -0.014325672 -3.1686132e-21)
(0.30008496 -0.01374144 1.3605831e-21)
(0.31594184 -0.013157371 3.8687809e-22)
(0.33171507 -0.012576421 1.2114212e-21)
(0.3473792 -0.012001246 1.8369726e-22)
(0.36291043 -0.01143422 -3.2663259e-22)
(0.3782867 -0.010877447 -7.2437117e-22)
(0.39348772 -0.010332769 9.7161536e-22)
(0.40849501 -0.0098017809 8.2486653e-22)
(0.42329193 -0.0092858391 -1.5151171e-22)
(0.43786366 -0.0087860721 5.5309609e-22)
(0.45219718 -0.0083033945 -2.3881572e-22)
(0.46628131 -0.0078385209 -3.7073356e-22)
(0.4801066 -0.0073919819 -6.1003476e-22)
(0.49366535 -0.0069641407 4.4173778e-22)
(0.50695152 -0.0065552112 -1.551792e-23)
(0.51996073 -0.0061652785 1.6129062e-22)
(0.53269023 -0.0057943179 -4.4181575e-22)
(0.5451388 -0.0054422227 3.7198918e-22)
(0.55730711 -0.005108815 6.7184566e-23)
(0.56919667 -0.0047939304 -1.0285549e-22)
(0.58081357 -0.0044972852 1.7620652e-22)
(0.59215757 -0.004219109 2.3350661e-22)
(0.60325697 -0.003958412 1.6936356e-22)
(0.61406631 -0.0037190423 1.6779587e-22)
(0.62477488 -0.0034914405 -2.612153e-23)
(0.63491112 -0.00331207 8.4166199e-23)
(0.64596374 -0.0030827887 7.6414409e-23)
(0.65386407 -0.0031333912 -1.9484093e-22)
(0.67013307 -0.0026136142 -3.8005334e-23)
(0.06761527 -0.02402933 9.4528812e-21)
(0.073590318 -0.02674925 3.2951266e-21)
(0.082266232 -0.028805787 -1.2162296e-20)
(0.091948632 -0.029968737 -1.225811e-21)
(0.10198411 -0.03076811 1.4970687e-20)
(0.11254734 -0.031331151 -1.4887209e-20)
(0.12367708 -0.031636343 -2.9842466e-20)
(0.13529805 -0.031713291 1.4493628e-20)
(0.14735832 -0.031607933 1.8182098e-20)
(0.15982492 -0.031350365 -1.1598602e-20)
(0.17266224 -0.03096214 1.0190621e-21)
(0.18583262 -0.030463085 8.6860431e-21)
(0.19929981 -0.029870894 -1.5253669e-20)
(0.21302872 -0.029200591 2.9096061e-21)
(0.22698478 -0.028465123 7.5195119e-21)
(0.24113396 -0.027675877 3.1544399e-23)
(0.25544293 -0.026842941 2.6553027e-22)
(0.26987907 -0.02597529 -7.4151761e-21)
(0.28441058 -0.025080968 3.86179e-21)
(0.29900652 -0.024167233 8.4750198e-21)
(0.31363695 -0.023240659 -3.83523e-21)
(0.32827304 -0.02230721 -2.2130591e-21)
(0.34288716 -0.021372304 1.0124373e-21)
(0.35745299 -0.020440847 -1.7155713e-21)
(0.37194565 -0.019517268 1.353242e-21)
(0.38634175 -0.018605535 7.1846887e-22)
(0.40061947 -0.017709179 1.5269366e-21)
(0.41475866 -0.016831304 -1.9527678e-21)
(0.42874083 -0.015974607 2.2236997e-21)
(0.44254921 -0.01514139 5.5191586e-22)
(0.45616875 -0.014333583 4.0330557e-22)
(0.46958611 -0.01355276 3.2135348e-22)
(0.48278968 -0.012800165 8.7334765e-22)
(0.49576952 -0.012076737 -1.3710178e-21)
(0.50851732 -0.011383138 3.7070838e-22)
(0.5210264 -0.010719782 1.0946885e-22)
(0.53329166 -0.010086867 -4.519207e-23)
(0.54530959 -0.0094844107 8.6710927e-23)
(0.55707815 -0.0089122933 -3.7192059e-22)
(0.56859716 -0.0083702749 1.8298894e-22)
(0.57986724 -0.0078581372 -3.4992541e-23)
(0.59089355 -0.0073754623 3.9022661e-22)
(0.60167503 -0.0069226805 -1.855405e-22)
(0.6122386 -0.0064982034 4.734105e-23)
(0.62253911 -0.0061084238 4.3638581e-23)
(0.63276045 -0.005737648 -7.3662443e-23)
(0.64244322 -0.0054458401 -1.209899e-22)
(0.65303217 -0.0050720353 3.8851589e-22)
(0.66058411 -0.0051559718 1.7286401e-22)
(0.6762348 -0.0043089691 -8.3061397e-22)
(0.15021619 -0.031460694 1.5010274e-21)
(0.15354787 -0.035257681 -1.1566651e-20)
(0.16061728 -0.038011228 6.644213e-21)
(0.16880705 -0.039479425 -1.3324811e-20)
(0.17698349 -0.040521034 -1.9758418e-21)
(0.18552481 -0.041302643 9.1600102e-21)
(0.19458566 -0.041757616 -9.7663111e-21)
(0.2040885 -0.041914107 1.5662592e-21)
(0.21398939 -0.041833743 1.290388e-20)
(0.22427784 -0.041554763 3.4032418e-21)
(0.23493453 -0.041102488 -6.2097371e-21)
(0.24593236 -0.040500908 -2.8638509e-21)
(0.2572439 -0.039772222 -5.8409141e-21)
(0.26884161 -0.038935543 -6.4553813e-21)
(0.28069692 -0.038007477 3.2356708e-21)
(0.29278052 -0.037002818 8.4615971e-22)
(0.30506284 -0.035934855 1.3679908e-21)
(0.31751432 -0.034815566 -3.3850703e-21)
(0.33010553 -0.033655808 -4.2429686e-21)
(0.34280746 -0.032465469 2.3616971e-21)
(0.35559168 -0.031253585 3.2252153e-21)
(0.36843054 -0.03002842 -1.5636832e-21)
(0.38129732 -0.028797523 1.5867662e-21)
(0.39416639 -0.027567771 -3.9126834e-22)
(0.40701333 -0.026345401 -3.9197877e-21)
(0.41981504 -0.02513603 -3.0333494e-21)
(0.43254985 -0.023944675 -1.902911e-22)
(0.44519756 -0.022775771 4.2857174e-22)
(0.45773952 -0.021633187 -2.2106689e-21)
(0.47015866 -0.020520251 -8.5506232e-22)
(0.4824395 -0.019439769 2.2838187e-22)
(0.49456818 -0.018394056 -1.249974e-21)
(0.50653242 -0.017384968 6.2390423e-24)
(0.51832153 -0.016413935 -4.2426762e-22)
(0.52992637 -0.015481998 -4.7195817e-22)
(0.54133933 -0.014589856 -5.2007388e-22)
(0.55255432 -0.013737904 -8.4151358e-22)
(0.56356676 -0.012926283 -5.4483591e-23)
(0.57437351 -0.012154939 -3.9164311e-24)
(0.5849732 -0.011423651 -5.1986513e-22)
(0.59536529 -0.010732223 -9.1591219e-23)
(0.60555364 -0.01008018 -3.3252848e-22)
(0.6155361 -0.009468214 -4.3783176e-22)
(0.62533767 -0.0088942285 3.7862866e-22)
(0.63491375 -0.0083671137 1.4829631e-23)
(0.64444054 -0.0078654152 1.8252385e-22)
(0.65347615 -0.0074713384 -1.3264473e-22)
(0.66340215 -0.006965092 -2.6718957e-22)
(0.67045614 -0.0070815611 -4.4535446e-23)
(0.68522004 -0.0059354131 4.624281e-22)
(0.25468691 -0.036553104 -2.0900422e-20)
(0.25447152 -0.041393878 4.7586158e-20)
(0.25907473 -0.044746051 1.0348137e-20)
(0.26508561 -0.046442458 -1.5765398e-20)
(0.27071091 -0.04771475 -2.0228215e-21)
(0.27652163 -0.048748232 2.6232224e-21)
(0.28283729 -0.049414195 -1.6608482e-21)
(0.28957881 -0.049728596 -4.6861691e-21)
(0.29669861 -0.049761946 -4.0159413e-21)
(0.30420763 -0.049557588 -1.2207717e-20)
(0.31210448 -0.049142241 1.7897907e-20)
(0.32037182 -0.048541374 6.5220597e-21)
(0.32898961 -0.047779555 -1.6780642e-20)
(0.3379368 -0.046878627 1.03176e-20)
(0.34719004 -0.045857926 8.3850015e-21)
(0.3567239 -0.044734956 -8.7919001e-22)
(0.36651181 -0.043525728 -3.12221e-21)
(0.37652647 -0.042244927 -3.8198185e-21)
(0.38674022 -0.040906056 -1.3892978e-21)
(0.39712536 -0.039521568 -1.2304572e-21)
(0.40765442 -0.038102957 -3.0258466e-21)
(0.41830041 -0.036660825 0)
(0.42903705 -0.035204931 -1.3452363e-21)
(0.43983898 -0.033744221 3.9310229e-21)
(0.45068184 -0.032286851 5.4054199e-21)
(0.46154246 -0.030840203 -9.4113701e-22)
(0.47239896 -0.029410904 -2.9275961e-21)
(0.4832308 -0.028004841 3.0260271e-21)
(0.49401886 -0.026627182 2.5442405e-22)
(0.5047455 -0.025282399 3.4354607e-21)
(0.51539456 -0.023974299 -5.3460968e-22)
(0.52595138 -0.022706058 1.717452e-21)
(0.5364028 -0.021480259 -7.997238e-22)
(0.54673714 -0.020298936 2.9100529e-22)
(0.55694421 -0.019163627 -4.3411237e-22)
(0.56701526 -0.018075422 5.623733e-22)
(0.576943 -0.017035022 4.5718006e-22)
(0.58672158 -0.016042796 3.8263353e-22)
(0.59634653 -0.015098862 -9.5957346e-22)
(0.60581513 -0.014203116 6.8372835e-22)
(0.61512545 -0.01335548 -3.6967653e-22)
(0.62427984 -0.012555515 -1.103731e-21)
(0.63327489 -0.011804255 1.4084256e-21)
(0.64213336 -0.011099206 -6.2029882e-23)
(0.65081141 -0.01045168 -1.5825813e-22)
(0.65947569 -0.0098349655 -7.8306963e-24)
(0.66770654 -0.0093517926 -1.2638324e-22)
(0.67680575 -0.0087289348 -4.6626161e-22)
(0.68323952 -0.0088767208 8.787266e-22)
(0.69689186 -0.0074683766 -4.4331866e-23)
(0.37635287 -0.038368594 -1.7495192e-20)
(0.37171142 -0.044270681 1.2832093e-20)
(0.37286863 -0.04816209 2.9754966e-21)
(0.37591228 -0.050099352 -7.6354117e-21)
(0.37830719 -0.051670496 1.2056045e-20)
(0.38072496 -0.053042921 7.7914542e-21)
(0.38367814 -0.054030611 -1.2647743e-20)
(0.38710282 -0.054633697 -6.0680118e-21)
(0.3909316 -0.05491862 1.2697416e-20)
(0.39518493 -0.054927772 -1.5305113e-20)
(0.39987688 -0.054688174 -1.4063281e-20)
(0.40499785 -0.054225333 1.4129785e-20)
(0.41053156 -0.053564361 6.8194334e-21)
(0.41646028 -0.052728671 -4.2038767e-21)
(0.42276343 -0.05173976 -1.8545236e-21)
(0.4294175 -0.050617514 -4.0581509e-21)
(0.43639715 -0.049380487 5.3047441e-21)
(0.44367584 -0.048046034 3.6682397e-21)
(0.45122635 -0.046630377 -3.240843e-21)
(0.45902114 -0.045148666 3.1379767e-21)
(0.46703269 -0.043615033 2.7667379e-21)
(0.4752338 -0.042042625 -3.2111779e-21)
(0.48359787 -0.040443626 3.7056997e-22)
(0.49209906 -0.038829268 -3.2572005e-21)
(0.50071249 -0.037209845 7.2457174e-21)
(0.50941435 -0.035594717 6.1082656e-21)
(0.51818204 -0.033992325 8.0980301e-22)
(0.52699426 -0.032410203 -1.7683843e-21)
(0.53583103 -0.030855003 3.7024321e-21)
(0.54467378 -0.029332519 7.1890002e-21)
(0.55350536 -0.027847725 2.3050458e-21)
(0.56231005 -0.026404815 3.3167564e-21)
(0.57107356 -0.025007253 1.9957715e-21)
(0.57978305 -0.023657822 7.4566256e-22)
(0.58842706 -0.022358694 -2.6375711e-22)
(0.59699556 -0.021111481 2.7206822e-21)
(0.60547992 -0.019917319 6.2001358e-22)
(0.6138729 -0.018776926 2.9492231e-22)
(0.62216861 -0.017690708 5.6240675e-23)
(0.63036289 -0.016658789 9.8992975e-22)
(0.63845231 -0.015681318 4.7027879e-23)
(0.64643766 -0.014757995 4.4264134e-22)
(0.65431422 -0.013890275 -1.2625897e-22)
(0.66210228 -0.013075392 -2.7749527e-22)
(0.66975911 -0.012326981 -1.5227509e-22)
(0.6774403 -0.011613662 -4.2237495e-22)
(0.68475243 -0.011056623 1.6158513e-22)
(0.69290398 -0.010335639 -1.2734174e-22)
(0.69862874 -0.010513165 -5.0119415e-22)
(0.71099793 -0.008885972 2.4596074e-22)
(0.50927613 -0.035974779 3.6471369e-21)
(0.49953229 -0.042961185 -1.8958359e-20)
(0.49627753 -0.047384008 -2.3083996e-21)
(0.49555798 -0.049737338 5.4869732e-21)
(0.49417168 -0.051818628 3.0528377e-21)
(0.49269798 -0.053706019 -4.9861032e-23)
(0.49181464 -0.055188282 6.1897315e-21)
(0.49151696 -0.056266057 7.6251536e-21)
(0.49171424 -0.056991215 9.8580897e-21)
(0.49241342 -0.057396279 -1.1250121e-20)
(0.49363387 -0.05750703 -2.1579598e-20)
(0.49537074 -0.057349169 -3.9354057e-21)
(0.49760779 -0.056947906 1.5938286e-20)
(0.5003263 -0.056327807 1.2809074e-20)
(0.50350511 -0.055512554 -5.906713e-21)
(0.50712015 -0.05452469 1.3816653e-21)
(0.51114522 -0.053385651 -3.6601653e-21)
(0.51555278 -0.052115829 2.2444908e-21)
(0.52031454 -0.050734561 -2.9123285e-22)
(0.52540183 -0.049260104 -1.8654404e-21)
(0.53078599 -0.047709626 7.8267655e-21)
(0.53643865 -0.046099203 -2.9312222e-22)
(0.54233201 -0.044443811 4.1821752e-22)
(0.54843901 -0.042757316 -6.5644044e-22)
(0.55473355 -0.041052469 -4.3030477e-21)
(0.5611906 -0.03934091 4.2086328e-21)
(0.56778633 -0.037633168 1.9031479e-21)
(0.57449817 -0.035938686 -3.3083021e-21)