/*--------------------------------*- C++ -*----------------------------------*\
  =========                 |
  \\      /  F ield         | OpenFOAM: The Open Source CFD Toolbox
   \\    /   O peration     | Website:  https://openfoam.org
    \\  /    A nd           | Version:  6
     \\/     M anipulation  |
\*---------------------------------------------------------------------------*/
FoamFile
{
    version     2.0;
    format      ascii;
    class       volVectorField;
    location    "151";
    object      UMean;
}
// * * * * * * * * * * * * * * * * * * * * * * * * * * * * * * * * * * * * * //

dimensions      [0 1 -1 0 0 0 0];

internalField   nonuniform List<vector> 
9200
(
(0.0019526477 0.00072128836 -6.1611914e-20)
(0.016712366 -0.0042600023 4.9221851e-20)
(0.043665085 -0.0093554454 -4.0408585e-20)
(0.080079275 -0.014365868 -6.4289771e-20)
(0.1240346 -0.019087535 1.9916831e-20)
(0.17425214 -0.023089008 3.4948192e-20)
(0.22961512 -0.026086219 -1.3062473e-20)
(0.28909157 -0.027940981 9.8863536e-21)
(0.35171749 -0.028601761 1.8305278e-20)
(0.41656577 -0.028080141 1.6180844e-21)
(0.48272321 -0.026439554 -2.3460225e-20)
(0.54928254 -0.023784221 2.252571e-20)
(0.61534638 -0.020248103 -4.3929116e-20)
(0.68004083 -0.015983715 -2.3129632e-20)
(0.74253702 -0.011150299 6.4637227e-21)
(0.80207765 -0.0059041199 -2.7602582e-20)
(0.85802155 -0.00037567618 2.7751566e-20)
(0.90996432 0.005475347 2.467371e-20)
(0.95755812 0.011776374 -2.4534579e-22)
(0.99819229 0.015230768 -1.563865e-21)
(0.0064328356 -0.0021326196 -1.7748333e-20)
(0.030711807 -0.011368244 4.222482e-20)
(0.068096532 -0.018496618 2.4437585e-20)
(0.11544461 -0.023951484 -1.2248794e-19)
(0.17053096 -0.027940315 -1.3383397e-20)
(0.23181597 -0.03026884 7.8200483e-20)
(0.29791381 -0.030858242 -3.7842711e-20)
(0.36751244 -0.029760649 -9.0409487e-21)
(0.4393637 -0.027097944 3.7011135e-20)
(0.51226106 -0.023042478 -4.6834942e-20)
(0.5850297 -0.017809256 -3.3096499e-20)
(0.65653466 -0.011645406 7.8617389e-20)
(0.72570202 -0.0048182312 4.1732867e-20)
(0.79154818 0.002396543 -7.4252216e-20)
(0.85321289 0.0097247716 1.5973598e-20)
(0.90999061 0.016898563 -4.0131526e-20)
(0.96136859 0.023669932 -1.525829e-20)
(1.0071222 0.029882917 7.7439001e-20)
(1.0471835 0.03513724 3.3413472e-20)
(1.0798516 0.036365794 -8.5895703e-20)
(0.012327256 -0.0048823008 3.7784485e-20)
(0.048448592 -0.017890616 2.2560065e-21)
(0.098034184 -0.02628955 2.2844093e-20)
(0.15758624 -0.031267103 1.0328531e-21)
(0.22458627 -0.033526751 -4.2354314e-20)
(0.29721046 -0.033175788 1.9969002e-20)
(0.37377161 -0.030401091 1.3957808e-20)
(0.45264864 -0.025502692 -5.3757893e-20)
(0.53229365 -0.018828415 6.1540844e-20)
(0.61122946 -0.01075628 1.5752542e-20)
(0.68806129 -0.0016868662 -5.9057354e-20)
(0.76150608 0.0079704089 -2.0000237e-20)
(0.83043048 0.017813816 9.4361104e-21)
(0.89388973 0.027465434 2.5471681e-20)
(0.95116055 0.036584772 -1.230403e-20)
(1.0017614 0.044877311 3.0185074e-20)
(1.0454622 0.052107927 -2.1979493e-20)
(1.0823102 0.058147403 -7.5356921e-20)
(1.1125059 0.06273822 -2.4586013e-20)
(1.1352675 0.064033356 5.1473389e-20)
(0.019727474 -0.0072768117 2.5001283e-20)
(0.070027199 -0.023128164 5.2894474e-20)
(0.13344317 -0.031692385 2.0757517e-20)
(0.20619962 -0.035034291 1.4011286e-20)
(0.28550484 -0.03443944 1.8497174e-20)
(0.36923675 -0.030385706 -5.0639895e-20)
(0.4553941 -0.02338911 -2.7385504e-20)
(0.54205148 -0.014053664 0)
(0.6273955 -0.0029975726 1.6064489e-20)
(0.70975115 0.009166795 -6.9972247e-21)
(0.78761934 0.021844149 -1.0551198e-19)
(0.85972462 0.034475751 -1.6765602e-20)
(0.92506073 0.046561057 7.0423715e-20)
(0.98292436 0.057676465 4.7414117e-22)
(1.0329306 0.067488633 -1.6906841e-21)
(1.0750058 0.075760422 2.3533037e-20)
(1.1093607 0.082356603 -5.4461238e-21)
(1.1364623 0.087271635 -6.5306078e-20)
(1.1569146 0.090488724 -4.903466e-20)
(1.1707365 0.091065224 7.2260583e-20)
(0.028654344 -0.0090326414 -3.809248e-21)
(0.095329677 -0.026328931 -4.690685e-21)
(0.17390633 -0.033632746 5.861044e-20)
(0.2604409 -0.033995666 1.9730494e-20)
(0.35191095 -0.029366341 -3.4135477e-20)
(0.44590927 -0.020661805 1.2507842e-20)
(0.54014881 -0.0087855286 2.8146377e-21)
(0.63246102 0.005311789 3.6301623e-20)
(0.72086984 0.020719952 6.0815241e-21)
(0.8036497 0.036595703 -1.4540362e-20)
(0.87938306 0.052179305 6.5281537e-20)
(0.94701262 0.066818353 -6.2032111e-20)
(1.0058747 0.079989692 -1.4169535e-19)
(1.0557055 0.091313033 -5.9661727e-21)
(1.096619 0.10055419 8.8580845e-20)
(1.1290565 0.10761747 0)
(1.1537177 0.11253373 1.0932683e-20)
(1.1714893 0.11546281 -1.6252145e-20)
(1.1833292 0.11659096 -9.2994212e-21)
(1.1898208 0.11552607 2.1816771e-20)
(0.039038242 -0.0098444959 -5.0204995e-21)
(0.12398627 -0.026731516 4.4823875e-21)
(0.2186175 -0.031093262 -9.0671855e-21)
(0.31897028 -0.027047453 2.9248629e-20)
(0.42187015 -0.017269373 -3.1130793e-20)
(0.5246836 -0.0031713291 -1.7910236e-20)
(0.62492552 0.013917668 3.8488881e-20)
(0.72031495 0.032688401 4.7712584e-21)
(0.80888754 0.051957486 -2.6800554e-20)
(0.88907672 0.070701002 7.4610089e-20)
(0.95977375 0.088072981 1.9072722e-22)
(1.0203606 0.10342577 -8.6013604e-20)
(1.0707058 0.11632121 0)
(1.1111225 0.12652673 4.1870886e-20)
(1.1422933 0.1339967 5.7760966e-21)
(1.165174 0.13884181 -8.1663239e-20)
(1.1808875 0.14129431 -2.065074e-20)
(1.190628 0.14168568 -1.3014364e-20)
(1.1955555 0.14035806 -1.5442975e-20)
(1.1965267 0.13724745 4.2270415e-20)
(0.050706376 -0.0094064173 -1.7318118e-20)
(0.15536041 -0.023624328 -3.4587677e-21)
(0.26639253 -0.02320147 3.0791563e-20)
(0.38001353 -0.013350179 3.7724681e-20)
(0.4930221 0.0024989236 -2.0702046e-20)
(0.60267567 0.022412122 -7.3061396e-20)
(0.70644606 0.044635798 -3.0053472e-20)
(0.80213752 0.067538871 8.3664553e-20)
(0.8880263 0.089736946 9.5318691e-21)
(0.96294454 0.11012753 -2.6210832e-20)
(1.0263161 0.12789985 1.4223313e-20)
(1.078143 0.14253759 -4.624715e-21)
(1.1189427 0.15380428 0)
(1.1496454 0.1617089 2.8701191e-20)
(1.1714678 0.16645668 -8.3417055e-20)
(1.1857805 0.16839186 -3.3074472e-20)
(1.1939858 0.16794264 8.4807918e-20)
(1.197422 0.16558206 -4.8359314e-21)
(1.1972839 0.16175004 3.617824e-21)
(1.1944759 0.1565662 2.8509353e-20)
(0.063377087 -0.0074396861 -3.2615705e-20)
(0.18855547 -0.016417397 -8.4030083e-20)
(0.31571539 -0.0093270134 1.4226006e-21)
(0.44146639 0.0075688193 7.3281001e-20)
(0.56275477 0.030109622 6.5203186e-20)
(0.67690719 0.05586266 -7.4149368e-20)
(0.7815683 0.082706018 3.7318671e-22)
(0.87487239 0.10878253 9.0836286e-20)
(0.95558637 0.13263408 5.1538066e-20)
(1.0231673 0.15322494 -5.741823e-20)
(1.0777455 0.16992589 -9.7453525e-20)
(1.1200439 0.18248178 -3.3271728e-21)
(1.151247 0.19095687 4.4278591e-20)
(1.1728422 0.19566158 -6.8438602e-21)
(1.1864587 0.19707135 -1.32732e-20)
(1.1937225 0.19574782 2.0242014e-20)
(1.1961441 0.19227318 4.5716054e-20)
(1.1950469 0.18720687 -4.5435216e-20)
(1.1915279 0.18102485 -1.0637767e-19)
(1.1863993 0.1739373 2.5816394e-20)
(0.076630407 -0.0037234636 -3.5981049e-20)
(0.22237658 -0.0047178969 -1.7600805e-19)
(0.36471418 0.010836726 8.6192329e-20)
(0.50089914 0.035755979 9.6708592e-20)
(0.62824621 0.065241163 6.0178124e-20)
(0.74438357 0.096444276 9.0558036e-21)
(0.84738455 0.12699519 -1.1116116e-19)
(0.93597043 0.15496538 0)
(1.0096255 0.17899509 -7.272325e-20)
(1.0685991 0.19828443 -1.6075884e-20)
(1.1138158 0.21253186 5.7408421e-20)
(1.1467199 0.22185081 1.1447582e-20)
(1.1690848 0.22666671 -4.7607427e-20)
(1.1828183 0.22760536 -5.1032276e-20)
(1.1897932 0.22538749 2.5444798e-20)
(1.1917186 0.22074098 4.6824422e-20)
(1.1900605 0.2143383 -5.7877252e-20)
(1.1860099 0.20676209 -1.1149945e-19)
(1.1804891 0.19847067 -3.0549857e-21)
(1.1741529 0.18970961 2.7938766e-20)
(0.089891544 0.0018903953 -4.0726154e-21)
(0.2553358 0.011656807 9.0254938e-20)
(0.41119981 0.037278292 -1.4134016e-20)
(0.55564439 0.070857731 -8.8744558e-20)
(0.68660293 0.10712708 4.7173364e-20)
(0.80226372 0.14298103 5.0494145e-20)
(0.90138596 0.17599034 5.8099973e-21)
(0.98350228 0.20436252 -1.0406235e-19)
(1.0489753 0.22703579 -2.6247197e-21)
(1.0989236 0.24361476 5.2889664e-20)
(1.1350529 0.25424602 6.245881e-21)
(1.1594366 0.25947585 -2.0669901e-20)
(1.174288 0.26010124 -7.8809331e-20)
(1.1817601 0.25703061 -6.3983928e-21)
(1.1837968 0.25116987 4.5111209e-20)
(1.1820433 0.24334196 3.8294819e-20)
(1.1778136 0.2342412 2.0309243e-20)
(1.1721031 0.22441718 -5.521926e-20)
(1.165634 0.21427286 1.2878746e-20)
(1.1588915 0.20406088 8.5060913e-20)
(-0.0013383462 0.0014612231 -7.5959782e-22)
(-0.0047686323 0.0031936657 1.8181671e-21)
(-0.010805177 0.0040864433 2.1170257e-21)
(-0.017638773 0.0044171622 -6.8699627e-22)
(-0.024352256 0.004359591 -2.6368718e-21)
(-0.030517789 0.0040317226 2.7675354e-21)
(-0.035861382 0.0035194665 -8.8296834e-21)
(-0.040209165 0.0028847432 -7.6085143e-21)
(-0.043468286 0.0021714821 1.3536281e-20)
(-0.045600043 0.001410599 -1.1584497e-20)
(-0.046599552 0.0006235991 -2.0495781e-22)
(-0.046482929 -0.00017481541 4.3076373e-21)
(-0.045278763 -0.00097477688 -6.9202497e-22)
(-0.043022306 -0.0017696968 2.6015435e-20)
(-0.039751854 -0.0025548694 2.6312637e-22)
(-0.035508245 -0.0033259879 -4.6087203e-20)
(-0.030337317 -0.0040785082 8.5903448e-21)
(-0.024281636 -0.0048103883 2.6516712e-20)
(-0.017352544 -0.005520164 -4.8544118e-20)
(-0.009614106 -0.0061582681 -3.0564119e-20)
(-0.0016970352 0.0042518169 -5.7981406e-21)
(-0.0053927049 0.0092691677 9.3615254e-21)
(-0.011169557 0.011838467 -1.061176e-20)
(-0.017390914 0.012766323 6.2528186e-21)
(-0.023240693 0.012559778 7.3554343e-21)
(-0.028343155 0.011564997 9.8411997e-22)
(-0.032460707 0.010034147 -2.916849e-20)
(-0.035445859 0.0081489136 -2.4116087e-21)
(-0.037223557 0.0060381882 2.4171181e-20)
(-0.037766656 0.0037926667 -5.9627014e-21)
(-0.037077522 0.0014754052 -2.5429507e-20)
(-0.035176472 -0.00087052811 5.6506382e-21)
(-0.032094144 -0.0032162941 2.5599355e-20)
(-0.027866161 -0.0055427207 1.1702405e-20)
(-0.022529371 -0.0078362004 2.4874466e-20)
(-0.016122331 -0.010084517 -2.2164794e-20)
(-0.008695235 -0.012274926 -2.4055384e-20)
(-0.00030170629 -0.014400879 2.3798972e-20)
(0.0091196164 -0.016447653 2.9417765e-20)
(0.019761718 -0.018245352 1.7020715e-20)
(-0.0023433947 0.0066509637 -4.7117498e-21)
(-0.0064723575 0.014427308 -4.562713e-21)
(-0.011673594 0.018366485 -3.3743031e-23)
(-0.016643313 0.019722142 -5.4816318e-22)
(-0.020759105 0.019288533 7.855515e-21)
(-0.023745656 0.017614531 1.2312813e-20)
(-0.025436042 0.015100847 -4.6476384e-21)
(-0.025734087 0.012036364 -2.2261942e-20)
(-0.024599604 0.0086263461 7.7243218e-21)
(-0.022028526 0.0050154569 1.5031537e-20)
(-0.018038227 0.0013043821 6.9724672e-21)
(-0.012658505 -0.0024381022 2.0524753e-20)
(-0.0059256298 -0.0061661074 1.9639267e-21)
(0.0021219394 -0.0098495491 -3.7855333e-20)
(0.011447322 -0.013467442 1.6770055e-21)
(0.022013651 -0.017001363 -2.400463e-20)
(0.033761099 -0.020434058 -2.7607158e-20)
(0.046611184 -0.023756902 5.1075414e-20)
(0.060745838 -0.026916426 2.8295267e-20)
(0.076858518 -0.029544994 6.1440441e-22)
(-0.0031524925 0.0084441577 -5.908021e-21)
(-0.0077210728 0.018160239 -1.2225852e-20)
(-0.011956947 0.02298984 4.5279551e-21)
(-0.015011388 0.024510025 4.8771753e-21)
(-0.016529014 0.023731377 2.1548963e-21)
(-0.016375269 0.021365735 9.1699464e-21)
(-0.014483738 0.017934502 1.127303e-20)
(-0.01083229 0.013813856 -1.7040945e-21)
(-0.0054322998 0.0092717411 -1.3406637e-20)
(0.0016847444 0.0044974867 -3.3575396e-20)
(0.010476715 -0.00037689293 2.0012828e-22)
(0.020895863 -0.0052611338 4.6105051e-20)
(0.032893054 -0.010095423 -2.0317458e-20)
(0.046419318 -0.014840912 -1.3756544e-20)
(0.061429895 -0.019471641 2.0575419e-22)
(0.077882564 -0.023966904 3.5985687e-20)
(0.095701507 -0.028312311 -1.7070517e-20)
(0.11476497 -0.032507023 -5.8411492e-20)
(0.13537987 -0.036434656 4.9536008e-20)
(0.1589501 -0.039410216 3.5998452e-20)
(-0.0039575528 0.0094861901 -3.7630853e-22)
(-0.0087479038 0.020111492 -1.3562816e-20)
(-0.011516847 0.025220888 -3.9953569e-20)
(-0.011946598 0.026569402 -7.4887871e-21)
(-0.0099981372 0.025298333 -3.2706286e-21)
(-0.005707649 0.022233248 7.5566781e-21)
(0.00086678248 0.017981209 -5.7543341e-21)
(0.0096534018 0.01298023 -1.0408601e-20)
(0.020573057 0.0075430138 2.509038e-20)
(0.033544612 0.0018909846 5.5898523e-21)
(0.048488791 -0.0038209658 -2.9112284e-20)
(0.065327934 -0.009486738 1.2241538e-20)
(0.083986345 -0.015036036 0)
(0.10439073 -0.020424421 1.3437137e-20)
(0.12647318 -0.025624476 -1.0735209e-20)
(0.15017044 -0.030618314 -1.600992e-20)
(0.17537722 -0.035404577 -8.1720245e-22)
(0.20190638 -0.040011013 -2.7613888e-21)
(0.23014831 -0.044257112 4.8997015e-20)
(0.26236117 -0.04700161 -1.2460298e-20)
(-0.004568557 0.0097105287 -7.9058839e-21)
(-0.009092391 0.020101993 2.7355578e-20)
(-0.0097415422 0.024805742 -1.2366688e-20)
(-0.0067603461 0.025607312 -3.096457e-20)
(-0.00045145871 0.023688577 -3.0148623e-20)
(0.0089588382 0.019935434 -1.6977924e-20)
(0.021270168 0.015001168 -9.8249579e-22)
(0.036299991 0.0093559512 6.3572758e-21)
(0.053885989 0.0033362161 2.2042148e-20)
(0.073882337 -0.002818885 8.2551186e-21)
(0.09615438 -0.0089419299 -7.9454393e-21)
(0.12057579 -0.014918226 -1.9370672e-21)
(0.14702467 -0.020672344 -4.2470738e-20)
(0.17538083 -0.026158272 -1.4036323e-20)
(0.20552745 -0.031351091 2.1216408e-20)
(0.23735233 -0.036241091 -2.3467906e-20)
(0.27069752 -0.040850412 -9.8413608e-21)
(0.30528604 -0.045263798 3.2470833e-20)
(0.34151778 -0.049272593 5.3897309e-20)
(0.38255006 -0.051171062 3.7343745e-21)
(-0.0047886212 0.0091253959 1.7527024e-20)
(-0.0082582107 0.018131616 1.5173379e-20)
(-0.0059465901 0.02173871 5.5815165e-20)
(0.0013437165 0.021627531 2.6213799e-20)
(0.0129632 0.018933518 2.0775411e-22)
(0.028485385 0.014549025 -4.4422911e-20)
(0.047555208 0.0091327449 -2.7064648e-20)
(0.069866203 0.0031566343 1.1689441e-20)
(0.095154222 -0.0030422554 1.6043028e-20)
(0.12318705 -0.0092244942 -1.43672e-20)
(0.15375266 -0.015222999 -4.9069723e-20)
(0.18665001 -0.020924611 3.2950988e-20)
(0.22168133 -0.02625684 2.1855626e-20)
(0.25864647 -0.031178845 -3.0364875e-20)
(0.29734268 -0.035674608 1.2969692e-20)
(0.33756864 -0.039749622 2.6415202e-20)
(0.3790788 -0.04345952 8.967146e-21)
(0.42148099 -0.046976604 -1.3345202e-20)
(0.46509747 -0.050141835 -1.4665095e-20)
(0.51390799 -0.050669236 8.0525643e-21)
(-0.0044251148 0.0078009857 1.1867339e-20)
(-0.0057406371 0.014360601 -2.6050217e-20)
(0.00058900934 0.016250092 8.4370459e-21)
(0.01322905 0.014928705 3.7017971e-20)
(0.031191431 0.011405157 5.6683978e-20)
(0.05384646 0.0065275117 2.2320025e-20)
(0.080674731 0.00092075141 -6.4274697e-21)
(0.11122711 -0.0049740386 -1.3536667e-20)
(0.14511659 -0.010843882 -6.9287994e-21)
(0.18199843 -0.016468786 3.7860436e-20)
(0.22155101 -0.021698538 -5.2324041e-21)
(0.2634616 -0.026435611 -1.8544975e-20)
(0.30741535 -0.030623063 -2.1500004e-20)
(0.35308756 -0.034236974 -5.22104e-20)
(0.40014279 -0.037281664 2.5322563e-20)
(0.44824309 -0.039789468 -1.53637e-20)
(0.49701665 -0.041862975 2.8528428e-20)
(0.54594357 -0.043796648 2.3042952e-20)
(0.59520452 -0.045602065 -9.0628016e-20)
(0.64940801 -0.044575504 4.4945746e-22)
(-0.0032968287 0.0058547641 2.3088387e-20)
(-0.0010527517 0.0090854838 -2.8508302e-20)
(0.010575899 0.0087870759 -4.8183738e-20)
(0.02975676 0.0060958272 -2.9514183e-20)
(0.055179529 0.0018219818 -2.2305204e-21)
(0.086006785 -0.0032790657 1.4376243e-20)
(0.12154132 -0.0086553658 -3.1185229e-21)
(0.16117205 -0.013928759 1.9797607e-20)
(0.20436048 -0.018837926 9.6723787e-21)
(0.25061333 -0.023206092 -1.247335e-20)
(0.29945746 -0.026921188 9.9531623e-21)
(0.35042194 -0.029920907 -2.6267479e-20)
(0.40302548 -0.032181943 9.2324815e-21)
(0.45676842 -0.033713273 1.84242e-20)
(0.51113205 -0.034552091 -3.1410841e-21)
(0.56558907 -0.034765535 1.9898408e-21)
(0.61958882 -0.034504223 -6.6834672e-22)
(0.67246421 -0.034168683 2.1594933e-20)
(0.72422477 -0.033962405 3.9695772e-21)
(0.77987354 -0.031265141 -2.7007303e-21)
(-0.0012346464 0.0034397132 2.526126e-20)
(0.0062547687 0.0027236932 6.1714655e-20)
(0.024660086 1.0332988e-05 -5.233055e-20)
(0.051688117 -0.0039819198 -1.0719561e-20)
(0.085720786 -0.0087134058 2.1944265e-20)
(0.12570908 -0.013568686 2.3146017e-21)
(0.17076209 -0.018109274 -3.2260019e-20)
(0.22007962 -0.022056869 7.5955317e-21)
(0.27293517 -0.025235293 7.7112869e-21)
(0.32864401 -0.027542315 -2.8630509e-20)
(0.38653571 -0.028934025 1.4056075e-21)
(0.44593718 -0.029412054 -4.0754149e-20)
(0.50616373 -0.029013108 -3.9873601e-20)
(0.5665164 -0.02780057 7.2101119e-20)
(0.62628537 -0.02585714 6.0992016e-21)
(0.68475732 -0.023283749 -1.6600369e-20)
(0.74120128 -0.020239624 2.1084242e-20)
(0.79479626 -0.017027527 -9.8485042e-22)
(0.84509131 -0.013673466 2.1191358e-20)
(0.8957542 -0.0086713344 -2.2037411e-20)
(-0.00041081316 -0.0064450757 6.4203281e-20)
(0.010377481 -0.0069590224 1.6886863e-20)
(0.022602973 -0.0073676607 -3.764732e-20)
(0.035907041 -0.0075990082 1.8232757e-20)
(0.050006463 -0.00773784 0)
(0.064831588 -0.0078140471 0)
(0.080316476 -0.0078307039 -2.4180299e-20)
(0.096374219 -0.0077959204 -1.7186165e-20)
(0.11292652 -0.0077197218 2.0077455e-20)
(0.12990682 -0.0076094822 1.8877694e-20)
(0.14725387 -0.0074708295 1.0351481e-21)
(0.16491 -0.007308717 -1.0459479e-20)
(0.18282151 -0.0071274745 8.6740914e-21)
(0.20093829 -0.00693078 1.8267373e-20)
(0.21921326 -0.0067217829 -5.4807973e-21)
(0.23760201 -0.0065032164 -1.0040525e-20)
(0.25606255 -0.0062774642 -4.2286869e-21)
(0.27455515 -0.006046613 -4.2071782e-21)
(0.29304226 -0.0058124995 6.7757951e-22)
(0.31148836 -0.0055767477 1.2043867e-21)
(0.32986001 -0.0053407975 2.5844357e-21)
(0.34812578 -0.0051059266 6.4046924e-21)
(0.3662563 -0.0048732677 9.4742434e-23)
(0.3842243 -0.0046438211 -3.2998684e-21)
(0.40200458 -0.0044184648 1.1720049e-22)
(0.41957408 -0.0041979631 -5.44633e-22)
(0.4369119 -0.0039829728 1.1657675e-21)
(0.45399924 -0.0037740498 9.3174842e-22)
(0.47081948 -0.003571655 -1.2876326e-21)
(0.48735806 -0.0033761598 -9.002043e-23)
(0.50360251 -0.0031878528 -7.9032989e-23)
(0.51954234 -0.0030069453 -3.1870205e-22)
(0.53516905 -0.0028335788 -4.1228187e-22)
(0.55047599 -0.0026678312 1.0685366e-22)
(0.56545829 -0.0025097244 -1.2226583e-22)
(0.58011285 -0.0023592315 -1.8487252e-22)
(0.5944382 -0.0022162843 2.0962675e-22)
(0.60843449 -0.0020807816 2.349482e-22)
(0.62210337 -0.0019525985 -4.4032697e-23)
(0.63544837 -0.0018315909 -1.6730966e-22)
(0.64847366 -0.0017176254 9.1556946e-24)
(0.66118832 -0.0016105343 -1.7738388e-23)
(0.67359391 -0.0015103321 7.3818001e-23)
(0.68572394 -0.0014166315 -3.4067249e-23)
(0.69752805 -0.0013306774 -1.4360634e-22)
(0.70922063 -0.0012492911 1.1910994e-23)
(0.72026984 -0.001184453 9.2574919e-24)
(0.73234847 -0.0011043537 -6.0901833e-24)
(0.74089225 -0.0011155363 2.4196767e-23)
(0.75874114 -0.00094723585 3.770045e-22)
(0.030175445 -0.018969601 -1.4530568e-20)
(0.039950549 -0.020529821 -6.8509184e-20)
(0.051645587 -0.021730981 -3.350918e-20)
(0.064390525 -0.022389932 4.1510388e-20)
(0.077784028 -0.022788381 1.5729753e-20)
(0.091837572 -0.023013076 -1.9752714e-20)
(0.10651829 -0.02306524 5.4173994e-21)
(0.12174238 -0.022967206 2.6577448e-20)
(0.13743901 -0.022748805 -3.0157649e-22)
(0.15355135 -0.022431227 -8.1073016e-21)
(0.17002544 -0.022030365 -1.2856806e-20)
(0.18680906 -0.02156042 -9.0208035e-21)
(0.20385309 -0.021033905 1.7991556e-20)
(0.22111129 -0.020461458 9.8768977e-21)
(0.23853972 -0.019852214 -1.6090501e-20)
(0.25609647 -0.019214136 -5.9934865e-21)
(0.2737416 -0.018554198 3.0588037e-21)
(0.29143702 -0.017878531 8.0242385e-21)
(0.30914649 -0.01719255 6.9068358e-21)
(0.32683553 -0.016501062 -7.1086579e-21)
(0.34447151 -0.015808342 -3.4628167e-21)
(0.36202365 -0.015118199 1.6539394e-21)
(0.37946302 -0.014434013 7.755391e-22)
(0.39676269 -0.013758783 1.2570193e-21)
(0.41389767 -0.013095144 2.6075993e-22)
(0.430845 -0.012445397 -3.9223563e-22)
(0.44758377 -0.011811525 -7.5731473e-22)
(0.46409512 -0.011195211 1.1096444e-21)
(0.48036225 -0.010597856 8.8765576e-22)
(0.49637037 -0.010020595 -3.21951e-22)
(0.51210671 -0.0094643127 6.1321459e-22)
(0.52756044 -0.0089296679 -2.1659079e-22)
(0.54272263 -0.0084171074 -4.2944141e-22)
(0.55758617 -0.0079268892 -6.25672e-22)
(0.57214573 -0.0074591031 3.9168767e-22)
(0.58639766 -0.0070136927 -1.5243507e-22)
(0.60033992 -0.0065904782 2.4635947e-22)
(0.6139721 -0.0061891794 -4.76194e-22)
(0.62729523 -0.0058094456 4.8013902e-22)
(0.64031223 -0.0054508678 5.7335795e-23)
(0.65302665 -0.0051130681 -3.860808e-23)
(0.66544692 -0.0047955645 2.3109956e-22)
(0.67757402 -0.0044984211 3.1160877e-22)
(0.68944059 -0.004220495 2.3975824e-22)
(0.70099628 -0.003965529 2.6178623e-22)
(0.7124526 -0.0037240324 -1.3727804e-23)
(0.72328366 -0.0035317935 1.3460843e-22)
(0.73514024 -0.0032939133 1.1739573e-22)
(0.74351963 -0.0033277823 -2.0855288e-22)
(0.76107319 -0.0028277989 3.6230246e-24)
(0.089478305 -0.030364129 1.0663559e-20)
(0.09725949 -0.03298121 4.1192836e-21)
(0.1078017 -0.03492237 -1.4541295e-20)
(0.11940435 -0.035934497 -1.8354952e-21)
(0.13137756 -0.036558719 1.6580027e-20)
(0.14389004 -0.036933103 -1.5910566e-20)
(0.15698148 -0.037037825 -3.2160965e-20)
(0.17057045 -0.036903601 1.5750908e-20)
(0.1845973 -0.03657924 1.9498423e-20)
(0.19902321 -0.036097587 -1.2336226e-20)
(0.21380738 -0.035482286 1.0562422e-21)
(0.228907 -0.034755025 8.2944173e-21)
(0.24428089 -0.033935283 -1.5986315e-20)
(0.25988949 -0.033039688 4.1777312e-21)
(0.27569418 -0.032082588 7.9275538e-21)
(0.29165732 -0.031076597 -7.7087942e-22)
(0.30774238 -0.030032859 -2.2891594e-22)
(0.32391402 -0.028961246 -7.736032e-21)
(0.34013812 -0.027870545 4.6868266e-21)
(0.35638191 -0.026768604 8.7448162e-21)
(0.37261404 -0.025662452 -3.9231175e-21)
(0.38880472 -0.024558378 -2.1520201e-21)
(0.40492574 -0.023462003 8.2615852e-22)
(0.42095061 -0.022378327 -1.8012958e-21)
(0.43685463 -0.021311772 1.2896712e-21)
(0.45261492 -0.020266212 6.8124022e-22)
(0.4682105 -0.019245002 1.9231071e-21)
(0.48362229 -0.018251008 -2.2718506e-21)
(0.49883312 -0.017286626 2.5735412e-21)
(0.51382774 -0.016353817 6.0852966e-22)
(0.52859279 -0.015454131 7.0983357e-22)
(0.54311674 -0.014588737 2.9211598e-22)
(0.5573899 -0.013758457 1.0819516e-21)
(0.5714043 -0.012963797 -1.6433063e-21)
(0.58515367 -0.012204984 4.6223581e-22)
(0.59863338 -0.011482 2.7114323e-22)
(0.61184035 -0.010794622 -9.4956342e-23)
(0.62477308 -0.010142459 -1.7201947e-23)
(0.63743151 -0.0095249985 -4.1429573e-22)
(0.64981739 -0.0089416311 2.4190015e-22)
(0.66193314 -0.0083917964 -2.7413882e-23)
(0.67378596 -0.0078747569 6.1205507e-22)
(0.68537577 -0.0073906806 -2.8164105e-22)
(0.6967336 -0.0069377254 3.2990522e-23)
(0.70780914 -0.0065221416 8.868869e-23)
(0.71880844 -0.0061282817 -1.0248883e-22)
(0.72921692 -0.0058152202 -1.7354687e-22)
(0.74064322 -0.0054267276 5.7025505e-22)
(0.74870347 -0.005483915 1.854798e-22)
(0.76568409 -0.0046671313 -8.6257875e-22)
(0.17438166 -0.039854604 1.9684952e-21)
(0.17923322 -0.043514017 -1.1927185e-20)
(0.18787359 -0.046117336 6.5693252e-21)
(0.19770038 -0.047397226 -1.4433264e-20)
(0.20753433 -0.048219536 -2.1296811e-21)
(0.21774682 -0.048762308 1.0362888e-20)
(0.22849843 -0.048961801 -1.1457767e-20)
(0.23970721 -0.048847834 9.1034068e-22)
(0.25132163 -0.048485505 1.3591485e-20)
(0.26332601 -0.047916589 4.0273867e-21)
(0.27569674 -0.047169267 -6.4565207e-21)
(0.28840206 -0.046270076 -3.3906669e-21)
(0.30140996 -0.045243628 -5.3962978e-21)
(0.31468868 -0.04411123 -6.9443558e-21)
(0.32820579 -0.042891433 2.5653782e-21)
(0.34192845 -0.041600741 1.792552e-23)
(0.35582389 -0.04025393 1.668402e-21)
(0.36985973 -0.038864252 -3.3806373e-21)
(0.38400414 -0.037443627 -4.7430622e-21)
(0.39822609 -0.036002809 2.596613e-21)
(0.41249551 -0.034551508 3.652623e-21)
(0.42678352 -0.033098484 -1.9693892e-21)
(0.44106252 -0.031651619 1.7316245e-21)
(0.45530639 -0.030217967 -5.6868621e-22)
(0.46949051 -0.028803805 -4.4862126e-21)
(0.48359193 -0.027414665 -3.0733732e-21)
(0.49758938 -0.026055369 -3.4358226e-22)
(0.51146333 -0.024730062 2.5550324e-22)
(0.52519603 -0.023442244 -2.2029558e-21)
(0.53877148 -0.022194809 -1.1716572e-21)
(0.55217546 -0.020990077 2.0974429e-22)
(0.56539546 -0.019829841 -1.4661581e-21)
(0.57842069 -0.018715405 -9.7061207e-23)
(0.59124199 -0.017647633 -5.5208094e-22)
(0.60385184 -0.016626998 -4.231955e-22)
(0.61624424 -0.015653628 -7.7376712e-22)
(0.62841473 -0.014727363 -1.1618824e-21)
(0.64036035 -0.0138478 8.4515476e-24)
(0.65207954 -0.013014369 -3.2923949e-24)
(0.66357252 -0.012226357 -6.6407584e-22)
(0.67484015 -0.011483115 1.9105023e-23)
(0.68588802 -0.010783739 -4.6701265e-22)
(0.69671463 -0.010128581 -7.1109665e-22)
(0.7073488 -0.009515193 5.4985407e-22)
(0.71774036 -0.0089523215 1.3141114e-23)
(0.72808764 -0.0084184633 2.7375576e-22)
(0.73789241 -0.007994983 -2.014448e-22)
(0.74870268 -0.0074675577 -3.8534291e-22)
(0.75630608 -0.0075486184 -2.0556783e-24)
(0.77246329 -0.0064394504 4.969117e-22)
(0.28066332 -0.046625143 -2.3942862e-20)
(0.28167392 -0.051305654 5.1116446e-20)
(0.28752783 -0.054483155 1.0921454e-20)
(0.29486347 -0.055972432 -1.7140843e-20)
(0.30184421 -0.057002924 -2.7312931e-21)
(0.30902825 -0.057768053 2.2449309e-21)
(0.3167437 -0.058143534 -2.3159879e-21)
(0.32491007 -0.058148173 -4.9632378e-21)
(0.33347275 -0.057856196 -4.2421779e-21)
(0.34243788 -0.057314873 -1.2833415e-20)
(0.3518005 -0.056554469 1.942708e-20)
(0.36153919 -0.055603677 7.2631814e-21)
(0.37162965 -0.054490066 -1.7329631e-20)
(0.38204684 -0.053238239 9.7811831e-21)
(0.39276366 -0.051870014 7.7386951e-21)
(0.40375121 -0.050405103 -1.1768294e-22)
(0.41497968 -0.048861454 -2.6372983e-21)
(0.42641889 -0.047255429 -4.5150311e-21)
(0.4380386 -0.045601951 -1.7078269e-21)
(0.4498089 -0.043914641 -1.5080494e-21)
(0.46170044 -0.042205927 -3.5510846e-21)
(0.47368471 -0.04048712 0)
(0.48573428 -0.038768474 -1.5744044e-21)
(0.49782288 -0.037059236 4.0199709e-21)
(0.50992564 -0.035367686 5.8461194e-21)
(0.52201911 -0.033701167 -8.9133061e-22)
(0.5340814 -0.032066129 -3.4892977e-21)
(0.54609222 -0.030468156 3.6978303e-21)
(0.55803291 -0.028912009 -7.1678703e-23)
(0.56988644 -0.02740167 3.9621109e-21)
(0.58163744 -0.025940386 -4.9287552e-22)
(0.59327216 -0.024530721 1.8472807e-21)
(0.60477846 -0.023174611 -9.6576699e-22)
(0.61614577 -0.021873423 4.7906949e-22)
(0.62736504 -0.020628013 -5.952413e-22)
(0.6384287 -0.019438793 5.9670273e-22)
(0.64933066 -0.018305795 5.8051138e-22)
(0.66006627 -0.017228739 4.8873312e-22)
(0.67063223 -0.016207119 -1.1962692e-21)
(0.68102703 -0.015240237 8.5726085e-22)
(0.69124975 -0.01432747 -4.4548975e-22)
(0.7013041 -0.013467861 -1.5023666e-21)
(0.71118697 -0.012662037 1.9181143e-21)
(0.72092458 -0.011907062 -5.1488025e-23)
(0.73046714 -0.011214144 -2.1919715e-22)
(0.74000333 -0.010556343 -6.6528856e-24)
(0.74905584 -0.010035903 -2.3109997e-22)
(0.75909588 -0.0093849059 -6.5874356e-22)
(0.7661287 -0.0094902441 7.3760258e-22)
(0.7812504 -0.0081210523 -5.3047027e-23)
(0.4031552 -0.049717216 -2.0105305e-20)
(0.39947123 -0.055457097 1.3449535e-20)
(0.40157249 -0.059166475 4.2565552e-21)
(0.40563282 -0.060898495 -8.3517902e-21)
(0.40909193 -0.062228406 1.304845e-20)
(0.41259989 -0.063325507 8.4043893e-21)
(0.41667519 -0.064008993 -1.3006975e-20)
(0.42125587 -0.064283591 -6.4655863e-21)
(0.42626926 -0.064219888 1.3451453e-20)
(0.43173119 -0.063864319 -1.7124469e-20)
(0.43765256 -0.06324793 -1.4709604e-20)
(0.44402021 -0.062400099 1.5821925e-20)
(0.45081397 -0.061349539 7.107987e-21)
(0.45801229 -0.060122978 -5.6652508e-21)
(0.46559096 -0.058744943 -1.1103927e-21)
(0.47352303 -0.057238056 -3.3879743e-21)
(0.48177989 -0.055623298 4.5977048e-21)
(0.49033202 -0.053920143 3.6970092e-21)
(0.49914948 -0.052146633 -3.0748943e-21)
(0.50820232 -0.05031944 3.1172948e-21)
(0.51746093 -0.048453931 3.0495028e-21)
(0.52689633 -0.046564217 -3.4591227e-21)
(0.53648042 -0.044663185 3.6554571e-22)
(0.54618618 -0.042762537 -3.1562836e-21)
(0.55598784 -0.040872809 8.595295e-21)
(0.56586096 -0.039003413 6.7291739e-21)
(0.57578255 -0.037162661 1.1583553e-21)
(0.58573114 -0.035357808 -1.8745017e-21)
(0.5956868 -0.033595098 4.5537427e-21)
(0.60563118 -0.031879808 8.4996424e-21)
(0.61554748 -0.030216308 2.4467084e-21)
(0.62542048 -0.028608124 3.9045496e-21)
(0.63523649 -0.027058001 2.2150414e-21)
(0.64498334 -0.025567979 9.0839703e-22)
(0.65465031 -0.024139464 -2.3739191e-22)
(0.66422815 -0.022773305 3.2732227e-21)
(0.67370901 -0.021469878 7.3336244e-22)
(0.68308648 -0.020229165 3.3106434e-22)
(0.69235546 -0.019050862 5.7419263e-23)
(0.70151258 -0.017934417 1.3178817e-21)
(0.71055511 -0.016879355 4.0214084e-23)
(0.71948482 -0.015884784 6.3909826e-22)
(0.72829693 -0.014951705 -1.2677679e-22)
(0.73701489 -0.01407682 -4.5491233e-22)
(0.74558956 -0.013273741 -2.2128137e-22)
(0.75419855 -0.012510585 -6.0409853e-22)
(0.76238934 -0.011908745 2.704474e-22)
(0.77154304 -0.011152146 -1.768129e-22)
(0.77792074 -0.011281998 -4.2229616e-22)
(0.79184123 -0.0096909369 2.9825267e-22)
(0.53566161 -0.048216785 3.3510174e-21)
(0.52665802 -0.055067942 -1.9522952e-20)
(0.52408847 -0.059326231 -2.7129387e-21)
(0.52411099 -0.061495632 5.8023013e-21)
(0.523532 -0.063355712 3.8360398e-21)
(0.52290449 -0.064981925 8.9628691e-22)
(0.52290366 -0.066166922 7.6411819e-21)
(0.52352802 -0.066916743 8.4001637e-21)
(0.52468446 -0.067288259 1.0226054e-20)
(0.52637608 -0.067318373 -1.2144957e-20)
(0.5286192 -0.067037217 -2.3562947e-20)
(0.53140589 -0.066474908 -4.7770556e-21)
(0.53471646 -0.065660871 1.7218135e-20)
(0.53852862 -0.064623578 1.3683602e-20)
(0.54281775 -0.063390313 -5.6722908e-21)
(0.54755644 -0.061986911 6.8120642e-22)
(0.55271525 -0.060437768 -4.4373008e-21)
(0.5582636 -0.058765885 3.4930657e-21)
(0.56417039 -0.056992863 -2.9445825e-22)
(0.57040442 -0.055138876 -2.0178117e-21)
(0.57693473 -0.053222678 8.8183709e-21)
(0.58373093 -0.051261606 -5.8352097e-22)
(0.59076348 -0.049271589 6.8811214e-22)
(0.59800388 -0.047267164 -3.699746e-22)
(0.60542481 -0.045261489 -4.6117669e-21)
(0.61300029 -0.043266374 4.4970289e-21)
(0.62070577 -0.041292308 1.8165923e-21)
(0.62851816 -0.039348507 -3.5088526e-21)