/*--------------------------------*- C++ -*----------------------------------*\
  =========                 |
  \\      /  F ield         | OpenFOAM: The Open Source CFD Toolbox
   \\    /   O peration     | Website:  https://openfoam.org
    \\  /    A nd           | Version:  6
     \\/     M anipulation  |
\*---------------------------------------------------------------------------*/
FoamFile
{
    version     2.0;
    format      ascii;
    class       volScalarField;
    location    "186";
    object      p;
}
// * * * * * * * * * * * * * * * * * * * * * * * * * * * * * * * * * * * * * //

dimensions      [0 2 -2 0 0 0 0];

internalField   nonuniform List<scalar> 
9200
(
-0.37794944
-0.36660296
-0.35650928
-0.34755999
-0.3388203
-0.33030406
-0.32208958
-0.31414434
-0.30640102
-0.29878769
-0.2912314
-0.28366311
-0.27602466
-0.26827606
-0.26040603
-0.25244989
-0.24448396
-0.23659607
-0.22981112
-0.22841115
-0.39581015
-0.38201249
-0.36997518
-0.3595061
-0.34939438
-0.33962147
-0.33025612
-0.32123507
-0.31245881
-0.30382901
-0.29525248
-0.28664702
-0.27794893
-0.26911903
-0.26014823
-0.25106149
-0.24188865
-0.23262944
-0.22396679
-0.21806664
-0.41408783
-0.39781616
-0.38388114
-0.37196271
-0.36053428
-0.34952668
-0.33898739
-0.32881469
-0.31887491
-0.30904718
-0.29922721
-0.28933293
-0.27931127
-0.26914128
-0.25883398
-0.24842803
-0.23796222
-0.22744549
-0.21727709
-0.20857208
-0.43234843
-0.41362186
-0.39785451
-0.38454833
-0.37182344
-0.3595437
-0.34772745
-0.33623401
-0.32490347
-0.3136078
-0.30225237
-0.29077895
-0.27916885
-0.26744071
-0.25564384
-0.24384803
-0.23211984
-0.22049816
-0.20925043
-0.19911777
-0.44996201
-0.42888358
-0.41140063
-0.39678379
-0.38277214
-0.36915177
-0.35591177
-0.34288315
-0.32990026
-0.31685505
-0.30369223
-0.29040562
-0.277034
-0.2636512
-0.25035271
-0.23724144
-0.22440747
-0.21190931
-0.19993517
-0.18899246
-0.4661041
-0.44288233
-0.42385941
-0.40802134
-0.39271636
-0.37765289
-0.36280317
-0.34799554
-0.33309278
-0.31804313
-0.30286353
-0.28762455
-0.2724361
-0.25742932
-0.24273837
-0.22848527
-0.21476466
-0.20163244
-0.18921458
-0.17784787
-0.47976955
-0.45473178
-0.4344062
-0.417447
-0.40082841
-0.384197
-0.36753597
-0.35071174
-0.33365998
-0.31642464
-0.29912306
-0.28191639
-0.26498479
-0.24850392
-0.23262621
-0.21746955
-0.20310962
-0.18957754
-0.17694017
-0.16539869
-0.48979456
-0.46340178
-0.44208423
-0.42412747
-0.40618145
-0.38786478
-0.36921432
-0.35018674
-0.3308391
-0.31134594
-0.29194237
-0.2728797
-0.25439374
-0.23668134
-0.21988726
-0.20410131
-0.18936067
-0.17565721
-0.16299983
-0.15147577
-0.49483691
-0.46761708
-0.4456075
-0.42672696
-0.40739951
-0.38727791
-0.36651264
-0.3452079
-0.32358163
-0.3019546
-0.28067305
-0.26005586
-0.24036368
-0.22178327
-0.20442541
-0.18833324
-0.17349463
-0.15985797
-0.14737815
-0.13604492
-0.49354617
-0.46596079
-0.44342844
-0.42358016
-0.40276084
-0.38074097
-0.3578501
-0.33438576
-0.31074056
-0.28736461
-0.26467805
-0.24302186
-0.22263878
-0.20367246
-0.18617931
-0.17014717
-0.15551505
-0.14219348
-0.13009062
-0.11911134
-0.26506742
-0.26974171
-0.27225012
-0.27300126
-0.27278714
-0.27179463
-0.27010519
-0.26780635
-0.26497032
-0.26165184
-0.25789495
-0.25373715
-0.24921156
-0.24434825
-0.23917549
-0.23372216
-0.22801914
-0.22208695
-0.21592463
-0.20961772
-0.26780006
-0.27205909
-0.27426076
-0.27479323
-0.27439604
-0.27324731
-0.2714266
-0.26901774
-0.26608938
-0.26269342
-0.25887147
-0.25465895
-0.25008708
-0.24518391
-0.23997513
-0.23448859
-0.22876264
-0.22281617
-0.21654188
-0.20991383
-0.27312954
-0.27657651
-0.27818019
-0.27828493
-0.27752881
-0.27607454
-0.27399813
-0.27137617
-0.26827036
-0.26472697
-0.26078281
-0.25646907
-0.25181317
-0.24683936
-0.24156845
-0.23602544
-0.23026011
-0.22429019
-0.21781658
-0.21058155
-0.28081596
-0.28310042
-0.28383856
-0.28331458
-0.28202556
-0.28011461
-0.27765381
-0.27470985
-0.27133481
-0.26756709
-0.26343665
-0.25896857
-0.25418477
-0.24910376
-0.24373956
-0.23811201
-0.23228281
-0.22627435
-0.21954111
-0.21145555
-0.29055705
-0.29138779
-0.29102437
-0.28968313
-0.28769224
-0.28517402
-0.28219737
-0.27881772
-0.2750757
-0.27100048
-0.26661378
-0.2619324
-0.25697072
-0.25174035
-0.24624719
-0.2405027
-0.23457658
-0.22850438
-0.22148144
-0.21236544
-0.30203902
-0.30118643
-0.2995202
-0.29718965
-0.29433722
-0.29106583
-0.28744341
-0.28351437
-0.27930735
-0.27483987
-0.27012284
-0.2651638
-0.25996833
-0.25453961
-0.24887439
-0.24297284
-0.23690466
-0.23072481
-0.2233975
-0.21314425
-0.31498293
-0.31227132
-0.30913535
-0.30566446
-0.3018067
-0.29764875
-0.29326143
-0.28867776
-0.28391168
-0.27896824
-0.27384685
-0.26854377
-0.263054
-0.25737116
-0.25148291
-0.24537762
-0.2391178
-0.23278104
-0.22516357
-0.2137817
-0.32917277
-0.32446739
-0.31972793
-0.31499368
-0.31001404
-0.3048624
-0.29961283
-0.29428615
-0.28888153
-0.2833896
-0.27779541
-0.27208099
-0.26622767
-0.26021703
-0.25402704
-0.24763717
-0.24110716
-0.23456057
-0.22674488
-0.21446599
-0.34445548
-0.33764228
-0.33118756
-0.32509064
-0.31889487
-0.31265908
-0.30646244
-0.30031306
-0.2941925
-0.28807376
-0.28192398
-0.27570672
-0.26938425
-0.26291781
-0.25626296
-0.24937182
-0.24226871
-0.23505982
-0.22648781
-0.21305031
-0.36073217
-0.35168822
-0.34340205
-0.33583786
-0.32831961
-0.32089127
-0.31363712
-0.30655019
-0.29959197
-0.29271616
-0.28587165
-0.27900526
-0.27206467
-0.26499844
-0.25775073
-0.25025711
-0.24246048
-0.2341542
-0.22368743
-0.2080187
-0.202467
-0.1935187
-0.18456546
-0.17567126
-0.1667824
-0.15794056
-0.14919926
-0.14059354
-0.1321527
-0.12390534
-0.11587725
-0.10809063
-0.10056462
-0.093315555
-0.086357043
-0.079699962
-0.073352605
-0.067320776
-0.061607885
-0.056215064
-0.051141285
-0.046383501
-0.041936797
-0.037794558
-0.033948641
-0.030389565
-0.027106704
-0.02408848
-0.021322559
-0.018796045
-0.016495662
-0.014407929
-0.01251933
-0.010816462
-0.009286185
-0.0079157465
-0.0066929131
-0.0056060704
-0.0046444012
-0.003797809
-0.0030577377
-0.0024151834
-0.0018678759
-0.0013991717
-0.0010446558
-0.00069475599
-0.00068805539
-8.020694e-05
-0.0017061959
0.0024524302
-0.20347703
-0.19413148
-0.1850692
-0.17618933
-0.16728245
-0.15841042
-0.14964469
-0.14101671
-0.13255331
-0.12428362
-0.11623374
-0.10842573
-0.10087872
-0.093609145
-0.086630649
-0.079954181
-0.0735881
-0.067538267
-0.061808147
-0.056398911
-0.051309564
-0.046537081
-0.042076559
-0.037921383
-0.034063405
-0.030493129
-0.027199909
-0.02417214
-0.021397458
-0.018862929
-0.01655524
-0.014460871
-0.012566262
-0.010857969
-0.0093228068
-0.0079479818
-0.0067212178
-0.0056308589
-0.0046660476
-0.0038166476
-0.0030740632
-0.0024292538
-0.0018798921
-0.0014093431
-0.0010529121
-0.00070167746
-0.00069145831
-8.6023425e-05
-0.0016916379
0.0024238423
-0.20559572
-0.19539955
-0.18611982
-0.17730864
-0.16837816
-0.15944545
-0.15063211
-0.14196011
-0.13344967
-0.12513208
-0.11703466
-0.10917935
-0.10158539
-0.094269556
-0.087245776
-0.080525219
-0.074116449
-0.068025516
-0.062256037
-0.056809304
-0.051684413
-0.0468784
-0.042386397
-0.038201799
-0.034316442
-0.030720799
-0.027404173
-0.024354894
-0.021560522
-0.019008038
-0.016684036
-0.014574897
-0.012666961
-0.010946681
-0.0094007692
-0.0080163297
-0.0067809865
-0.0056829862
-0.0047113768
-0.0038559303
-0.0031079605
-0.0024583417
-0.0019046289
-0.0014301806
-0.0010697747
-0.00071569039
-0.00069844929
-9.7514132e-05
-0.0016630616
0.0023672804
-0.20866434
-0.19709146
-0.18749077
-0.17887855
-0.16995867
-0.16094928
-0.1520818
-0.14336086
-0.13479139
-0.12640977
-0.11824703
-0.11032516
-0.1026637
-0.095280258
-0.088189476
-0.081403044
-0.074929985
-0.068776756
-0.062947308
-0.057443202
-0.052263736
-0.047406097
-0.04286551
-0.038635419
-0.03470767
-0.031072705
-0.027719768
-0.024637103
-0.021812162
-0.019231801
-0.016882475
-0.014750416
-0.01282181
-0.011082951
-0.0095203911
-0.0081210756
-0.0068724722
-0.0057626749
-0.0047805839
-0.0039158271
-0.0031595771
-0.0025025749
-0.0019421956
-0.0014617784
-0.0010953241
-0.00073685776
-0.00070912724
-0.00011463107
-0.0016212147
0.0022839689
-0.21245622
-0.19893672
-0.18891282
-0.18070138
-0.17187749
-0.16279408
-0.15388354
-0.14512998
-0.13650691
-0.12805793
-0.11982256
-0.11182393
-0.104082
-0.096615835
-0.089441472
-0.082571627
-0.076016169
-0.069782293
-0.063874573
-0.058295069
-0.053043473
-0.048117269
-0.043511896
-0.039220934
-0.035236298
-0.031548441
-0.028146563
-0.025018827
-0.022152564
-0.019534481
-0.017150862
-0.01498775
-0.013031129
-0.011267086
-0.0096819605
-0.0082624845
-0.0069959157
-0.0058701419
-0.0048738627
-0.0039965106
-0.0032290663
-0.002562089
-0.0019927117
-0.0015042412
-0.0011296557
-0.00076525137
-0.00072363804
-0.00013727328
-0.0015672408
0.002175793
-0.21662409
-0.20065484
-0.19011685
-0.18254397
-0.17396229
-0.16483648
-0.15590525
-0.14715349
-0.13850354
-0.13000056
-0.12169791
-0.11362319
-0.10579735
-0.098241344
-0.09097343
-0.084008119
-0.077356695
-0.07102756
-0.065026313
-0.059355859
-0.054016569
-0.049006457
-0.044321363
-0.03995515
-0.035899912
-0.032146195
-0.028683212
-0.025499073
-0.022581001
-0.019915553
-0.017488821
-0.015286632
-0.013294734
-0.011498962
-0.0098853964
-0.0084405081
-0.0071512934
-0.0060053824
-0.004991223
-0.0040980019
-0.003316458
-0.0026369207
-0.002056219
-0.001557615
-0.0011728239
-0.00080091385
-0.00074213644
-0.00016529928
-0.0015025876
0.0020452068
-0.22077042
-0.20206425
-0.19089114
-0.18412861
-0.17601255
-0.16694951
-0.15803185
-0.14931919
-0.14068539
-0.13215982
-0.12380821
-0.11566806
-0.10776364
-0.10011827
-0.092753136
-0.085685522
-0.078928919
-0.072493546
-0.066386547
-0.060612119
-0.055171683
-0.050064086
-0.045285812
-0.040831206
-0.036692694
-0.032861028
-0.029325516
-0.026074272
-0.023094441
-0.020372438
-0.017894164
-0.01564521
-0.01361106
-0.011777262
-0.010129599
-0.008654233
-0.007337853
-0.0061677832
-0.0051321721
-0.0042199118
-0.0034214517
-0.0027268457
-0.0021325578
-0.0016217962
-0.001224778
-0.00084382404
-0.00076475921
-0.00019855823
-0.0014289045
0.0018950997
-0.22463434
-0.20356058
-0.19146002
-0.18526788
-0.17781404
-0.16904579
-0.16021973
-0.15157086
-0.14299053
-0.13448008
-0.1261043
-0.11791334
-0.10993922
-0.10220877
-0.094746554
-0.087573356
-0.080705676
-0.074156173
-0.067934042
-0.062045205
-0.056492506
-0.051275938
-0.046392891
-0.041838399
-0.037605392
-0.03368496
-0.03006661
-0.026738527
-0.02368783
-0.020900819
-0.01836321
-0.016060358
-0.013977463
-0.012099763
-0.010412707
-0.0089021156
-0.007554327
-0.0063563173
-0.0052958911
-0.0043616019
-0.0035435643
-0.0028315143
-0.0022214912
-0.0016966448
-0.0012854633
-0.0008939842
-0.00079169543
-0.00023695819
-0.0013479914
0.0017287614
-0.22587367
-0.20538849
-0.19251903
-0.18589808
-0.17893165
-0.17074502
-0.16219542
-0.15367566
-0.14520234
-0.13676893
-0.12842307
-0.12022263
-0.11221074
-0.10442008
-0.096879146
-0.089612842
-0.082641527
-0.075981137
-0.069643646
-0.063637365
-0.057967164
-0.05263472
-0.047638792
-0.042975506
-0.038638634
-0.034619883
-0.030909185
-0.027494979
-0.024364493
-0.021504012
-0.018899139
-0.016535031
-0.014396627
-0.012468856
-0.010736821
-0.009185975
-0.0078022752
-0.0065723106
-0.0054834997
-0.0045240123
-0.0036835807
-0.0029515769
-0.0023235541
-0.0017825894
-0.0013552361
-0.00095161715
-0.00082333231
-0.000280208
-0.0012620062
0.001550461
-0.21601304
-0.20463459
-0.19363675
-0.18554938
-0.1784936
-0.17108121
-0.16313785
-0.15498398
-0.14679855
-0.13860759
-0.13043884
-0.12234978
-0.11439589
-0.10662013
-0.099058298
-0.091741971
-0.084697808
-0.077947277
-0.071507075
-0.065389556
-0.059603021
-0.054152014
-0.049037658
-0.044257987
-0.039808283
-0.035681414
-0.031868162
-0.028357557
-0.025137192
-0.022193527
-0.019512182
-0.017078207
-0.01487633
-0.012891191
-0.01110755
-0.0095104713
-0.008085501
-0.0068188003
-0.0056973555
-0.0047089014
-0.0038427365
-0.0030878137
-0.0024391425
-0.0018796816
-0.0014339267
-0.0010161981
-0.00085947968
-0.00032664954
-0.0011735088
0.0013657011
-0.19387508
-0.1985822
-0.19330905
-0.18440482
-0.1769023
-0.16989461
-0.16239449
-0.15453747
-0.1465894
-0.13861347
-0.13062925
-0.12268963
-0.11485391
-0.1071694
-0.099675128
-0.092405571
-0.085390368
-0.078653777
-0.072215015
-0.066088699
-0.060285153
-0.054810714
-0.049668068
-0.044856604
-0.040372764
-0.036210394
-0.032361096
-0.028814567
-0.025558938
-0.022581089
-0.019866957
-0.017401817
-0.01517055
-0.013157879
-0.011348592
-0.0097277395
-0.0082808123
-0.0069938878
-0.0058538401
-0.0048482765
-0.0039663172
-0.0031968005
-0.0025342732
-0.0019621305
-0.0015021082
-0.0010748392
-0.00089060736
-0.00037305232
-0.00108308
0.001182385
-0.1833263
-0.18914725
-0.18567437
-0.17693576
-0.16973301
-0.16347706
-0.15677742
-0.14963428
-0.14234356
-0.13498031
-0.12755427
-0.12011401
-0.11272125
-0.10542703
-0.09827392
-0.091300234
-0.084539646
-0.07802042
-0.071765613
-0.065793478
-0.060117757
-0.05474796
-0.049689701
-0.044945049
-0.040512885
-0.036389262
-0.032567762
-0.029039853
-0.025795233
-0.022822166
-0.020107794
-0.017638436
-0.015399868
-0.013377575
-0.011556983
-0.0099236692
-0.0084635534
-0.0071630543
-0.006009302
-0.0049901056
-0.0040946572
-0.0033119762
-0.0026361671
-0.0020516421
-0.0015764232
-0.001140116
-0.00092418475
-0.00042756711
-0.00098221277
0.00098474395
-0.17458819
-0.17780969
-0.17553272
-0.16851215
-0.16215983
-0.15659778
-0.15066492
-0.14425182
-0.13762514
-0.13087998
-0.12402824
-0.11711229
-0.11019264
-0.10332217
-0.09654556
-0.089903492
-0.083432557
-0.077164236
-0.071124877
-0.065336019
-0.059814623
-0.054573303
-0.049620618
-0.044961404
-0.040597116
-0.036526178
-0.032744339
-0.02924503
-0.026019714
-0.023058226
-0.020349097
-0.017879862
-0.015637352
-0.013607957
-0.011777869
-0.010133307
-0.0086607215
-0.0073469577
-0.0061794733
-0.005146341
-0.004236865
-0.0034402961
-0.0027502694
-0.0021523448
-0.0016604592
-0.0012141015
-0.00096320386
-0.00048896332
-0.0008738584
0.00076826446
-0.16491012
-0.1655229
-0.16369154
-0.15874705
-0.15362466
-0.14880524
-0.14366349
-0.13806211
-0.13217846
-0.1261134
-0.11989457
-0.11356243
-0.1071741
-0.1007831
-0.094435961
-0.088175358
-0.082040374
-0.076065455
-0.070280142
-0.064709257
-0.05937306
-0.054287422
-0.049464052
-0.044910789
-0.040631918
-0.036628505
-0.032898734
-0.029438265
-0.026240579
-0.023297323
-0.020598641
-0.018133491
-0.015889943
-0.013855459
-0.012017148
-0.010362002
-0.0088771089
-0.0075498394
-0.0063680577
-0.0053201644
-0.0043956266
-0.0035839611
-0.0028783551
-0.0022655188
-0.0017552833
-0.0012969988
-0.0010089037
-0.00055471849
-0.0007655755
0.00054300653
-0.15434099
-0.1530739
-0.15126457
-0.14803497
-0.14420579
-0.14019123
-0.1358465
-0.13108907
-0.12600239
-0.12066951
-0.11513357
-0.10943759
-0.10363455
-0.097776844
-0.09191192
-0.08608372
-0.080333071
-0.074696818
-0.069207331
-0.063892502
-0.058775805
-0.053876384
-0.049209204
-0.044785278
-0.040611941
-0.036693144
-0.033029775
-0.029619993
-0.026459568
-0.023542224
-0.020859967
-0.01840341
-0.01616208
-0.014124707
-0.012279489
-0.010614345
-0.0091171403
-0.007775882
-0.0065789396
-0.0055151199
-0.0045741186
-0.0037457555
-0.0030228242
-0.0023931281
-0.0018625698
-0.0013898429
-0.0010627839
-0.00062420325
-0.00066340217
0.00031707481
-0.1425545
-0.14049559
-0.13880081
-0.13684552
-0.1341872
-0.13100862
-0.12745102
-0.12351822
-0.11923234
-0.11464922
-0.10981975
-0.10478863
-0.09960429
-0.094316752
-0.088973295
-0.08361809
-0.078292602
-0.073035081
-0.067879967
-0.062857649
-0.057994394
-0.05331234
-0.048829552
-0.044560174
-0.040514622
-0.036699837
-0.033119559
-0.029774633
-0.026663326
-0.023781654
-0.021123707
-0.018681972
-0.016447641
-0.014410907
-0.012561244
-0.01088766
-0.0093789438
-0.0080238719
-0.0068114304
-0.0057309249
-0.0047723618
-0.0039259084
-0.0031840489
-0.0025355892
-0.0019828341
-0.0014929498
-0.0011258262
-0.00069697598
-0.00057333068
9.9122078e-05
-0.12986054
-0.12793079
-0.1265841
-0.1255409
-0.1238462
-0.12147728
-0.11867998
-0.11552584
-0.11201171
-0.10816714
-0.10404207
-0.099682881
-0.095132537
-0.090435951
-0.085639037
-0.080785436
-0.075916258
-0.07107002
-0.066282219
-0.061584928
-0.057006553
-0.052571708
-0.048301181
-0.04421198
-0.040317458
-0.036627484
-0.033148661
-0.029884592
-0.026836154
-0.024001802
-0.021377877
-0.018958918
-0.016737965
-0.014706855
-0.012856507
-0.011177187
-0.0096587568
-0.0082908976
-0.0070633343
-0.0059659739
-0.0049892284
-0.0041236652
-0.0033615683
-0.0026926345
-0.0021160316
-0.0016062471
-0.0011987059
-0.00077262127
-0.00050126158
-0.0001015416
-0.11697483
-0.11562526
-0.11476723
-0.11437984
-0.11344069
-0.11180699
-0.10972046
-0.10728348
-0.10448933
-0.10134982
-0.097907056
-0.094205363
-0.090284583
-0.08618402
-0.081944751
-0.077608685
-0.073215955
-0.068804407
-0.06440952
-0.060064077
-0.055797798
-0.051637084
-0.047604877
-0.043720612
-0.040000247
-0.036456352
-0.033098266
-0.029932286
-0.026961906
-0.024188078
-0.021609485
-0.019222839
-0.017023165
-0.015004095
-0.013158147
-0.011476992
-0.0099517108
-0.0085730252
-0.0073315237
-0.0062178231
-0.0052228445
-0.0043376164
-0.0035543514
-0.0028635208
-0.0022617076
-0.0017294069
-0.0012817983
-0.00085092881
-0.00045221487
-0.0002760662
-0.10444053
-0.1037575
-0.10341533
-0.10352196
-0.10317088
-0.10217447
-0.10072954
-0.098939767
-0.096801709
-0.094317667
-0.091519969
-0.088447589
-0.085135868
-0.081619771
-0.077935792
-0.074121469
-0.070214526
-0.06625144
-0.062266836
-0.058293256
-0.054360839
-0.050496982
-0.046726099
-0.043069475
-0.039545202
-0.036168189
-0.032950233
-0.029900146
-0.027023928
-0.024324979
-0.021804335
-0.019460926
-0.017291844
-0.015292617
-0.013457478
-0.011779633
-0.010251507
-0.0088649879
-0.0076116482
-0.0064829236
-0.0054703515
-0.0045654907
-0.0037606215
-0.0030468879
-0.002418883
-0.0018617704
-0.0013750644
-0.00093190267
-0.0004295542
-0.000417309
-0.092543248
-0.092446276
-0.092572535
-0.093066812
-0.093177071
-0.092715519
-0.091831223
-0.090614134
-0.089063074
-0.087175591
-0.084974928
-0.082493039
-0.079759996
-0.076805672
-0.0736621
-0.070362692
-0.066941213
-0.063431465
-0.059866462
-0.056277737
-0.052695007
-0.049145858
-0.045655442
-0.042246247
-0.038937942
-0.035747305
-0.032688214
-0.029771701
-0.027006059
-0.024396995
-0.021947814
-0.019659636
-0.017531635
-0.01556128
-0.013744595
-0.012076403
-0.010550582
-0.0091602879
-0.0078981872
-0.0067566361
-0.005727894
-0.0048041233
-0.0039778158
-0.003240712
-0.0025860087
-0.0020022954
-0.0014779722
-0.0010156541
-0.00043440573
-0.0005209628
-0.081423329
-0.081782356
-0.082291042
-0.083087913
-0.083559011
-0.083534566
-0.083125574
-0.082404145
-0.081368682
-0.080013818
-0.07835515
-0.076417267
-0.074224478
-0.071801384
-0.069174911
-0.066374093
-0.063428839
-0.060369345
-0.057225928
-0.054028364
-0.050805236
-0.047583569
-0.044388528
-0.041243131
-0.038168023
-0.035181321
-0.032298533
-0.02953254
-0.02689363
-0.02438959
-0.022025834
-0.019805571
-0.01773
-0.015798524
-0.014008976
-0.01235785
-0.010840538
-0.0094515499
-0.0081847318
-0.0070334514
-0.005990787
-0.0050495805
-0.0042026742
-0.0034423633
-0.0027610029
-0.0021495517
-0.001589469
-0.001102247
-0.00046536804
-0.00058639086
-0.07114124
-0.071828211
-0.072623263
-0.073645171
-0.074391437
-0.074714123
-0.074696102
-0.074392899
-0.073800824
-0.072912094
-0.071735978
-0.07029014
-0.068593021
-0.066663902
-0.064524524
-0.062199053
-0.059713201
-0.057093486
-0.054366884
-0.051560556
-0.048701257
-0.04581479
-0.042925653
-0.040056733
-0.037229034
-0.034461453
-0.031770635
-0.029170879
-0.026674109
-0.024289899
-0.022025547
-0.01988618
-0.017874911
-0.015993005
-0.01424008
-0.012614304
-0.011112616
-0.0097309277
-0.0084643318
-0.0073072804
-0.0062537551
-0.0052973506
-0.0044313904
-0.003648717
-0.0029413318
-0.0023017437
-0.0017079943
-0.0011915303
-0.00051861421
-0.00061691833
-0.061708905
-0.062616628
-0.063609371
-0.064785306
-0.065731309
-0.066319927
-0.066613173
-0.066652832
-0.066432761
-0.065943032
-0.065187691
-0.06417827
-0.062927637
-0.061449905
-0.059761728
-0.057882355
-0.055832961
-0.053636068
-0.051315123
-0.048894157
-0.046397411
-0.043848843
-0.041271664
-0.038688011
-0.036118638
-0.033582656
-0.031097321
-0.028677885
-0.026337502
-0.024087191
-0.021935845
-0.01989029
-0.01795538
-0.016134125
-0.01442785
-0.012836362
-0.011358137
-0.0099905096
-0.008729858
-0.007571772
-0.0065112061
-0.0055425759
-0.0046598032
-0.0038563016
-0.0031241253
-0.0024567602
-0.0018315383
-0.0012830073
-0.00058842915
-0.00061939099
-0.053111529
-0.054155858
-0.055271788
-0.056539792
-0.057619846
-0.058402674
-0.058934477
-0.059246152
-0.059329512
-0.059172936
-0.058776255
-0.058145806
-0.057289477
-0.056216596
-0.054939015
-0.053471224
-0.051829852
-0.050033207
-0.048100951
-0.046053739
-0.043912862
-0.041699863
-0.039436112
-0.037142423
-0.034838729
-0.03254379
-0.030274946
-0.028047909
-0.025876625
-0.023773168
-0.021747698
-0.019808463
-0.017961841
-0.016212419
-0.014563105
-0.013015265
-0.011568872
-0.010222668
-0.0089743275
-0.0078206119
-0.0067575002
-0.0057802886
-0.0048835994
-0.0040614646
-0.0033063097
-0.0026122492
-0.0019577479
-0.0013757782
-0.00066811161
-0.00060298792
-0.045318326
-0.046434978
-0.047614854
-0.04892392
-0.050082775
-0.050998222
-0.051704401
-0.052223766
-0.052546781
-0.052660746
-0.052562267
-0.052253479
-0.051738055
-0.051021122
-0.050110196
-0.04901535
-0.047748865
-0.046324881
-0.044759152
-0.043068765
-0.041271811
-0.039387037
-0.037433497
-0.035430181
-0.03339568
-0.031347875
-0.029303663
-0.027278727
-0.025287337
-0.023342205
-0.02145439
-0.019633244
-0.0178864
-0.016219809
-0.014637798
-0.013143168
-0.011737305
-0.010420315
-0.0091911538
-0.0080477601
-0.0069871717
-0.0060056142
-0.0050984956
-0.0042605272
-0.0034847399
-0.0027657097
-0.0020840712
-0.0014685769
-0.00075105577
-0.00057750955
-0.038287914
-0.039429089
-0.040627806
-0.041938176
-0.043131278
-0.044128168
-0.044953881
-0.045624462
-0.046129737
-0.046456577
-0.046599318
-0.046556884
-0.046329578
-0.045919036
-0.045329048
-0.04456577
-0.043637501
-0.042554447
-0.041328548
-0.039973282
-0.038503402
-0.036934641
-0.035283404
-0.033566456
-0.031800599
-0.03000236
-0.028187713
-0.02637182
-0.024568814
-0.022791609
-0.021051764
-0.01935938
-0.017723043
-0.016149804
-0.014645203
-0.01321331
-0.011856807
-0.010577078
-0.0093743121
-0.0082476122
-0.007195085
-0.0062139192
-0.0053003749
-0.0044499073
-0.0036563116
-0.0029145874
-0.0022079221
-0.0015598851
-0.00083174356
-0.00055157176
-0.031972862
-0.033104265
-0.034288879
-0.035571107
-0.036764033
-0.037801307
-0.038701199
-0.039474998
-0.040112498
-0.040600739
-0.04093265
-0.041104872
-0.041115187
-0.040962501
-0.04064757
-0.040173239
-0.03954433
-0.038767495
-0.037851126
-0.036805224
-0.035641221
-0.034371753
-0.033010399
-0.031571421
-0.030069486
-0.028519377
-0.026935715
-0.0253327
-0.023723879
-0.022121937
-0.02053852
-0.018984102
-0.01746788
-0.015997715
-0.014580104
-0.013220187
-0.011921777
-0.010687418
-0.0095184549
-0.0084151055
-0.0073765329
-0.0064009038
-0.0054853748
-0.0046262032
-0.0038180445
-0.0030563638
-0.0023268332
-0.0016480848
-0.00090638178
-0.00053121531
-0.026323114
-0.027421283
-0.028568894
-0.029802377
-0.030969737
-0.032015666
-0.032953467
-0.033790977
-0.034518431
-0.03512351
-0.035598466
-0.035938477
-0.036139589
-0.036198726
-0.036114318
-0.035886561
-0.035517381
-0.035010371
-0.034370763
-0.033605367
-0.032722464
-0.031731648
-0.030643635
-0.029470053
-0.028223209
-0.026915849
-0.025560898
-0.024171215
-0.02275936
-0.021337375
-0.019916595
-0.018507479
-0.017119482
-0.01576095
-0.014439057
-0.013159767
-0.011927829
-0.010746792
-0.0096190354
-0.0085458189
-0.0075273191
-0.0065626702
-0.0056499457
-0.0047862474
-0.0039671394
-0.00318863
-0.0024385698
-0.0017316031
-0.00097302666
-0.00051931942
-0.021288294
-0.022338277
-0.023434066
-0.024605504
-0.025729621
-0.026760721
-0.027708475
-0.028578259
-0.02936107
-0.030045565
-0.030623896
-0.031090452
-0.031440229
-0.031668841
-0.031773068
-0.031751112
-0.031602619
-0.031328673
-0.030931822
-0.030416075
-0.029786856
-0.029050913
-0.028216191
-0.027291684
-0.026287251
-0.025213422
-0.024081185
-0.022901762
-0.021686391
-0.020446111
-0.019191572
-0.01793285
-0.016679299
-0.015439417
-0.014220749
-0.013029815
-0.01187207
-0.010751873
-0.0096724953
-0.0086361226
-0.0076438731
-0.0066958109
-0.0057909186
-0.0049271623
-0.004101028
-0.0033091509
-0.0025411911
-0.001809013
-0.0010312278
-0.00051591098
-0.016819588
-0.017812968
-0.018848452
-0.019950385
-0.021019949
-0.022019755
-0.022956815
-0.023834762
-0.024645543
-0.025379
-0.026027592
-0.026585449
-0.027047065
-0.027407319
-0.027661939
-0.027807738
-0.027842677
-0.027765895
-0.027577771
-0.027279969
-0.026875437
-0.026368374
-0.025764168
-0.025069295
-0.024291202
-0.023438151
-0.022519059
-0.021543315
-0.020520583
-0.019460611
-0.01837304
-0.017267232
-0.016152099
-0.015035963
-0.013926432
-0.012830298
-0.011753463
-0.010700887
-0.0096765445
-0.0086834104
-0.0077234394
-0.0067975571
-0.0059056189
-0.0050464488
-0.0042174424
-0.0034159331
-0.0026330699
-0.0018790849
-0.0010814048
-0.00051912048
-0.012870801
-0.013804076
-0.014775636
-0.015805172
-0.016814003
-0.017771878
-0.018683845
-0.019552292
-0.020370199
-0.021128677
-0.021820768
-0.022440712
-0.022982922
-0.023441997
-0.023813106
-0.0240922
-0.024276089
-0.024362501
-0.024350161
-0.024238861
-0.024029505
-0.023724114
-0.02332581
-0.022838778
-0.022268186
-0.021620094
-0.020901331
-0.020119356
-0.019282106
-0.018397827
-0.017474908
-0.016521711
-0.015546413
-0.014556856
-0.01356041
-0.012563857
-0.011573286
-0.010594017
-0.0096305323
-0.0086864237
-0.0077643514
-0.0068660059
-0.0059920499
-0.0051421323
-0.0043145266
-0.0035073128
-0.0027129025
-0.0019408073
-0.0011242427
-0.00052632854
-0.0093999234
-0.010273127
-0.011180715
-0.01213838
-0.013084259
-0.013994217
-0.014871818
-0.01571855
-0.016528415
-0.017293798
-0.018008468
-0.018667024
-0.019264088
-0.019794312
-0.020252688
-0.020634732
-0.020936561
-0.021154959
-0.02128747
-0.021332481
-0.021289285
-0.021158125
-0.020940214
-0.020637729
-0.02025379
-0.019792405
-0.019258397
-0.018657311
-0.017995296
-0.017278984
-0.016515338
-0.015711514
-0.014874715
-0.014012043
-0.013130362
-0.012236175
-0.011335505
-0.010433793
-0.0095358129
-0.0086455909
-0.0077663382
-0.0069003887
-0.0060491223
-0.005212953
-0.0043909854
-0.0035820679
-0.0027797354
-0.0019934079
-0.0011603146
-0.00053507823
-0.0063689511
-0.0071847484
-0.0080310171
-0.0089199811
-0.0098038394
-0.010663673
-0.011501895
-0.01231932
-0.013110906
-0.013870247
-0.014591894
-0.015270943
-0.015902403
-0.016481206
-0.017002442
-0.017461511
-0.017854198
-0.018176736
-0.018425896
-0.018599078
-0.018694381
-0.018710668
-0.018647608
-0.018505706
-0.018286313
-0.017991612
-0.017624587
-0.017188966
-0.016689152
-0.016130131
-0.015517368
-0.014856684
-0.014154135
-0.013415886
-0.012648076
-0.011856697
-0.01104747
-0.010225735
-0.0093963461
-0.0085635714
-0.0077310069
-0.0069014916
-0.0060770109
-0.0052586628
-0.0044463201
-0.0036395929
-0.0028330567
-0.0020364165
-0.0011899957
-0.00054355655
-0.0037456752
-0.0045082727
-0.0052975462
-0.0061226504
-0.006947541
-0.0077577312
-0.0085547256
-0.0093388063
-0.010105789
-0.010850368
-0.011567866
-0.012253929
-0.012904047
-0.013513561
-0.014077834
-0.014592377
-0.015052907
-0.015455407
-0.015796211
-0.016072081
-0.01628029
-0.016418686
-0.016485755
-0.016480666
-0.016403308
-0.01625431
-0.016035035
-0.015747572
-0.015394689
-0.014979791
-0.014506844
-0.013980289
-0.013404949
-0.012785915
-0.012128443
-0.011437832
-0.010719308
-0.009977911
-0.0092183785
-0.0084450391
-0.0076617062
-0.0068715766
-0.0060771175
-0.0052800125
-0.0044808249
-0.0036798931
-0.0028727726
-0.0020696426
-0.0012134859
-0.00055063692
-0.0015044257
-0.0022196259
-0.0029578568
-0.0037256477
-0.0044967177
-0.0052602932
-0.0060171403
-0.0067671094
-0.0075067537
-0.0082317339
-0.0089380849
-0.0096219962
-0.010279466
-0.010906295
-0.011498218
-0.012050993
-0.012560446
-0.013022531
-0.01343339
-0.013789432
-0.014087405
-0.014324461
-0.014498227
-0.014606859
-0.014649095
-0.014624293
-0.014532461
-0.014374262
-0.014151014
-0.01386467
-0.01351778
-0.013113442
-0.012655232
-0.012147124
-0.011593399
-0.010998549
-0.010367166
-0.0097038346
-0.0090130188
-0.0082989461
-0.0075654932
-0.0068160721
-0.0060535044
-0.0052799502
-0.004496572
-0.0037043769
-0.0028998357
-0.0020936649
-0.0012312922
-0.00055594667
0.00037890391
-0.00029471988
-0.00098811752
-0.0017054417
-0.0024284656
-0.0031495236
-0.0038687808
-0.0045857212
-0.0052975104
-0.0060006296
-0.0066917395
-0.0073675303
-0.0080244816
-0.0086588561
-0.0092667886
-0.0098443486
-0.010387578
-0.010892534
-0.011355342
-0.01177226
-0.012139742
-0.012454503
-0.012713579
-0.012914398
-0.013054831
-0.013133247
-0.013148558
-0.013100248
-0.012988399
-0.012813694
-0.012577415
-0.012281417
-0.011928091
-0.011520311
-0.011061369
-0.010554894
-0.010004767
-0.0094150165
-0.0087897129
-0.008132856
-0.0074482549
-0.0067394081
-0.0060093684
-0.0052606603
-0.0044949449
-0.0037138173
-0.0029145822
-0.0021084742
-0.0012432306
-0.00055898942
0.0019014972
0.001261652
0.00060506936
-7.0652908e-05
-0.00075370557
-0.0014388673
-0.0021258071
-0.002813712
-0.0035002379
-0.00418253
-0.0048577673
-0.0055230666
-0.0061753291
-0.0068112349
-0.0074272979
-0.0080199086
-0.0085853612
-0.0091198865
-0.0096196948
-0.010081027
-0.010500208
-0.010873706
-0.011198189
-0.011470591
-0.01168817
-0.011848566
-0.011949858
-0.011990608
-0.011969904
-0.011887387
-0.011743265
-0.011538317
-0.011273889
-0.01095186
-0.010574602
-0.01014492
-0.0096659854
-0.0091412468
-0.0085743334
-0.0079689476
-0.0073287468
-0.0066572213
-0.0059575546
-0.0052325326
-0.0044842119
-0.0037146787
-0.0029219671
-0.0021177585
-0.0012519056
-0.00056107995
0.0031041164
0.0024920478
0.001865598
0.0012239912
0.00057401207
-8.1076e-05
-0.00074055715
-0.001403368
-0.0020675352
-0.0027307219
-0.0033905172
-0.004044382
-0.0046895634
-0.0053230909
-0.0059418072
-0.0065423937
-0.0071213901
-0.0076752198
-0.0082002229
-0.0086926963
-0.0091489394
-0.0095653034