/*--------------------------------*- C++ -*----------------------------------*\
  =========                 |
  \\      /  F ield         | OpenFOAM: The Open Source CFD Toolbox
   \\    /   O peration     | Website:  https://openfoam.org
    \\  /    A nd           | Version:  6
     \\/     M anipulation  |
\*---------------------------------------------------------------------------*/
FoamFile
{
    version     2.0;
    format      ascii;
    class       volScalarField;
    location    "186";
    object      pPrime2Mean;
}
// * * * * * * * * * * * * * * * * * * * * * * * * * * * * * * * * * * * * * //

dimensions      [0 4 -4 0 0 0 0];

internalField   nonuniform List<scalar> 
9200
(
0.060424194
0.050085899
0.041333365
0.035635619
0.031087953
0.02725517
0.023948052
0.02107012
0.01855716
0.016357743
0.014429272
0.012736039
0.011247896
0.0099392323
0.0087881847
0.0077760603
0.0068870374
0.0061079217
0.0054289447
0.0048374347
0.048995903
0.040535131
0.033459865
0.028809681
0.025079195
0.021925984
0.019201384
0.016829572
0.014759481
0.012949939
0.011366564
0.0099802711
0.0087662424
0.0077031474
0.0067725379
0.0059584194
0.0052470198
0.0046264756
0.0040857568
0.0036091492
0.038280207
0.03162521
0.026125065
0.022461318
0.019498685
0.016982422
0.014802713
0.012903709
0.011247266
0.0098021707
0.0085418431
0.0074432976
0.0064864626
0.0056536805
0.0049293505
0.0042996927
0.0037526107
0.0032774325
0.0028634538
0.0024966251
0.028574436
0.023596372
0.019521769
0.01675515
0.014489949
0.012551164
0.010865038
0.0093944595
0.0081134761
0.0070000323
0.0060344841
0.0051990736
0.0044776679
0.0038556174
0.0033196944
0.00285807
0.0024602845
0.0021170716
0.0018192897
0.0015563017
0.020146478
0.016664554
0.01382751
0.011844437
0.01018806
0.0087529039
0.0074974224
0.0064013937
0.0054497441
0.0046282599
0.003922971
0.0033202328
0.0028069665
0.0023709184
0.0020008892
0.0016868874
0.0014201742
0.001193159
0.00099881701
0.00083001503
0.013232418
0.01101791
0.0091997423
0.007866238
0.0067147229
0.005697303
0.0047997839
0.0040162744
0.0033406502
0.0027647715
0.0022788205
0.0018720798
0.001533703
0.0012533409
0.00102158
0.00083017943
0.00067212115
0.00054152007
0.00043338544
0.0003433188
0.0080296575
0.0068123172
0.0057723591
0.0049384412
0.0041756195
0.0034804296
0.0028601883
0.0023200882
0.0018605152
0.0014773692
0.0011634168
0.00090977937
0.0007071698
0.0005467661
0.0004207285
0.00032241621
0.00024638068
0.00018825184
0.00014467993
0.00011310829
0.0046918747
0.0041682675
0.0036532098
0.003157449
0.002658061
0.002182187
0.0017519953
0.0013799862
0.001070334
0.00082091963
0.00062566113
0.00047661406
0.00036551525
0.00028473777
0.00022775742
0.00018927315
0.00016511621
0.0001521007
0.00014801823
0.00015138543
0.0033247514
0.003167497
0.00291962
0.0025933311
0.0022265343
0.0018626023
0.001530975
0.0012472004
0.0010164233
0.00083664121
0.00070179188
0.00060421791
0.0005362805
0.0004912273
0.00046351847
0.00044882405
0.00044385898
0.00044620534
0.00045427064
0.00046701461
0.0039813733
0.0038502192
0.0036135931
0.0032851953
0.0029183133
0.00255728
0.0022304754
0.0019520881
0.0017256461
0.0015477962
0.0014117137
0.0013095852
0.0012340513
0.0011788581
0.0011390182
0.0011107036
0.0010910405
0.0010779154
0.0010698341
0.0010656599
0.14350225
0.12068752
0.099742089
0.0864981
0.075982641
0.067156774
0.059558397
0.052938205
0.047141859
0.04204806
0.037557708
0.03358876
0.030072494
0.026950817
0.024174262
0.02170046
0.01949295
0.017519079
0.015748191
0.014162554
0.14167406
0.11903309
0.098327667
0.08523589
0.074852235
0.066138936
0.058637977
0.052104159
0.046384916
0.041360118
0.036931604
0.033018123
0.029551637
0.026474649
0.023738219
0.021300462
0.019125394
0.017180841
0.015435972
0.013873673
0.13794508
0.11575761
0.095570734
0.082804677
0.072690867
0.064205756
0.056901189
0.050539653
0.044972591
0.040082765
0.035774309
0.031967845
0.028596902
0.025605321
0.02294532
0.020576035
0.018462459
0.016573369
0.014878039
0.013359675
0.13238052
0.11094065
0.091550962
0.079279944
0.069566884
0.061419128
0.054404703
0.048296956
0.042953338
0.038261124
0.034128047
0.030477646
0.027245873
0.024378611
0.021829822
0.019560148
0.017535942
0.015727361
0.014104295
0.012649763
0.12513238
0.10471891
0.086384803
0.074765852
0.065573742
0.057863325
0.051225064
0.045445983
0.040391317
0.035954305
0.032047462
0.028598219
0.025545736
0.022838589
0.020433018
0.01829159
0.016382312
0.01467704
0.013147131
0.011775192
0.11640721
0.097273476
0.080223279
0.069395479
0.06083001
0.053644581
0.047457887
0.042073074
0.03736471
0.03323327
0.029597104
0.026388384
0.023550192
0.021034375
0.018799935
0.016811739
0.015039666
0.013457428
0.012038811
0.010766509
0.10645575
0.08882145
0.073245134
0.063324873
0.055474027
0.048886315
0.043213636
0.038277268
0.03396244
0.030177948
0.026848861
0.023912843
0.021317525
0.019018567
0.016978168
0.015163863
0.013547626
0.012105037
0.010813016
0.0096554522
0.095563857
0.07960832
0.065651091
0.05672825
0.049659614
0.043725245
0.038614165
0.034167295
0.030281593
0.026875044
0.023880173
0.021240771
0.018909571
0.016846528
0.015017478
0.013393006
0.011947512
0.010658555
0.0095066004
0.0084778314
0.084042166
0.069898789
0.057656606
0.049791637
0.043550416
0.03830639
0.033788302
0.029857653
0.026423929
0.023414986
0.020771389
0.018443566
0.016389813
0.014574796
0.012968372
0.011544576
0.010280695
0.009156709
0.0081571139
0.0072704529
0.072214823
0.05996939
0.049484205
0.042704803
0.037312043
0.032775676
0.028865061
0.025462585
0.022490756
0.019887742
0.017602522
0.015592478
0.013821738
0.012259923
0.010881165
0.0096633069
0.008587268
0.0076369555
0.0068022418
0.0060721302
0.012489733
0.010821965
0.0094078244
0.0081800839
0.0071312428
0.0062328261
0.0054601302
0.0047919653
0.0042111059
0.0037035646
0.0032580142
0.0028653793
0.0025183734
0.0022110691
0.0019385767
0.0016968097
0.0014823057
0.0012920909
0.0011235808
0.00097450608
0.00084285613
0.00072683567
0.00062483132
0.00053538547
0.00045717609
0.000389001
0.00032976546
0.00027847223
0.00023421354
0.00019616436
0.00016357663
0.00013577406
0.00011214747
9.2150199e-05
7.5293918e-05
6.1144279e-05
4.9316972e-05
3.9473445e-05
3.131742e-05
2.4590078e-05
1.9068929e-05
1.4557624e-05
1.0900368e-05
7.9340088e-06
5.595677e-06
3.6679899e-06
2.3375051e-06
1.0727314e-06
1.4178037e-06
2.328761e-06
0.01224727
0.010634915
0.0092612992
0.0080646929
0.0070414167
0.006163635
0.0054068931
0.0047508042
0.0041790257
0.0036782718
0.0032378008
0.0028490198
0.0025049986
0.0022000537
0.001929461
0.0016892466
0.0014760249
0.0012868762
0.0011192555
0.00097092346
0.00083989357
0.00072439011
0.00062281608
0.00053372766
0.00045581453
0.00038788446
0.00032885118
0.00027772461
0.00023360306
0.00019566656
0.00016317132
0.00013544461
0.0001118802
9.1933858e-05
7.5119278e-05
6.1003763e-05
4.9204364e-05
3.9383644e-05
3.1246239e-05
2.453409e-05
1.9025322e-05
1.4524107e-05
1.0875075e-05
7.915455e-06
5.5826497e-06
3.6595505e-06
2.3330696e-06
1.0701271e-06
1.4092123e-06
2.2834684e-06
0.011820508
0.010307888
0.0090076339
0.0078681489
0.0068908003
0.0060494259
0.0053203388
0.0046847536
0.0041280787
0.0036384173
0.0032061292
0.002823488
0.0024841839
0.0021829486
0.0019153321
0.0016775437
0.0014663217
0.0012788322
0.0011125927
0.00096541184
0.00083534071
0.00072063461
0.00061972244
0.00053118226
0.00045372231
0.00038616615
0.00032744087
0.00027656771
0.00023265447
0.00019488917
0.00016253461
0.00013492355
0.00011145427
9.158624e-05
7.4836178e-05
6.0773861e-05
4.9018349e-05
3.9233849e-05
3.1126341e-05
2.4438866e-05
1.8950461e-05
1.4466054e-05
1.0830915e-05
7.8828313e-06
5.5596538e-06
3.6446177e-06
2.3253452e-06
1.0655648e-06
1.3920509e-06
2.1950072e-06
0.011235619
0.0098610331
0.0086649844
0.0076080194
0.006695068
0.005903143
0.0052107356
0.0046017285
0.0040642474
0.003588529
0.0031664964
0.0027915586
0.0024581895
0.0021616339
0.0018977764
0.0016630498
0.0014543454
0.0012689375
0.0011044236
0.000958674
0.00082978924
0.00071606504
0.000615964
0.00052809266
0.00045118323
0.00038407954
0.00032572577
0.00027515748
0.00023149445
0.00019393459
0.00016174893
0.00013427693
0.00011092236
9.1149164e-05
7.4477651e-05
6.0480529e-05
4.877921e-05
3.9039817e-05
3.096988e-05
2.4313716e-05
1.8851411e-05
1.438877e-05
1.0771815e-05
7.8389881e-06
5.5286727e-06
3.6245343e-06
2.3149854e-06
1.0596137e-06
1.3663192e-06
2.067923e-06
0.010518419
0.0093149163
0.008252065
0.0073022151
0.0064699606
0.0057372832
0.0050874974
0.0045086899
0.003992669
0.0035324825
0.0031219531
0.0027557396
0.0024291427
0.002137949
0.0018783996
0.0016471693
0.0014413213
0.0012582559
0.0010956662
0.0009514975
0.00082391051
0.00071125026
0.00061202006
0.00052486038
0.00044853189
0.00038190205
0.00032393472
0.00027368178
0.00023027641
0.00019292756
0.00016091519
0.000133586
0.00011034957
9.0674508e-05
7.4084832e-05
6.0156202e-05
4.8512377e-05
3.8821358e-05
3.0792186e-05
2.4170407e-05
1.8737123e-05
1.4298986e-05
1.0702758e-05
7.7875397e-06
5.4922165e-06
3.6009921e-06
2.3027891e-06
1.0530009e-06
1.3322724e-06
1.9088871e-06
0.009691052
0.0086882736
0.0077857913
0.0069653451
0.0062270038
0.0055598692
0.0049558034
0.0044090709
0.0039158463
0.0034723063
0.0030742922
0.002717694
0.0023986048
0.0021133501
0.0018585431
0.0016311223
0.0014283454
0.0012477609
0.0010871766
0.0009446282
0.00081834916
0.00070674323
0.00060836166
0.00052188421
0.00044610379
0.00037991429
0.00032230112
0.00027233367
0.00022915925
0.00019199813
0.00016013929
0.00013293654
0.00010980503
9.0217692e-05
7.37019e-05
5.98359e-05
4.8245436e-05
3.8600065e-05
3.0610037e-05
2.4021871e-05
1.8617468e-05
1.4204146e-05
1.0629264e-05
7.7324923e-06
5.4530538e-06
3.575845e-06
2.2895923e-06
1.0465011e-06
1.2903242e-06
1.7259972e-06
0.008775164
0.0079998678
0.007281247
0.0066062619
0.0059699911
0.0053716597
0.0048150617
0.0043022155
0.0038337001
0.0034085589
0.0030245356
0.0026787191
0.0023679986
0.0020892758
0.0018395897
0.0016161948
0.0014165867
0.0012384971
0.0010798757
0.00093886946
0.00081379943
0.00070313909
0.00060549531
0.00051959235
0.00044425872
0.00037841681
0.00032107464
0.00027131945
0.00022831252
0.00019128496
0.00015953404
0.00013241988
0.00010936228
8.9837641e-05
7.3375812e-05
5.9556827e-05
4.8007693e-05
3.8398863e-05
3.0441235e-05
2.3881812e-05
1.8502885e-05
1.4112098e-05
1.0557127e-05
7.6780211e-06
5.4140388e-06
3.5509788e-06
2.2762022e-06
1.0408606e-06
1.241038e-06
1.528017e-06
0.0077976709
0.0072711267
0.006750008
0.0062237341
0.0056910074
0.0051643752
0.0046591524
0.0041844974
0.0037447433
0.0033412857
0.0029736458
0.0026402398
0.0023389274
0.0020673381
0.0018230637
0.0016037741
0.0014072768
0.0012315385
0.0010746882
0.00093500901
0.00081092694
0.00070099635
0.00060388677
0.00051837107
0.00044331545
0.00037767138
0.00032046924
0.0002708132
0.00022787722
0.00019090174
0.00015919073
0.00013210894
0.00010907932
8.9580239e-05
7.314268e-05
5.9347253e-05
4.7821139e-05
3.8234753e-05
3.0298824e-05
2.3760152e-05
1.8400842e-05
1.4028393e-05
1.0490388e-05
7.6270003e-06
5.3770769e-06
3.5276267e-06
2.2629977e-06
1.0365639e-06
1.1850583e-06
1.3237507e-06
0.0067851649
0.0065114271
0.0061800657
0.0057901239
0.0053599976
0.0049134955
0.0044702855
0.004043261
0.0036398319
0.0032637595
0.0029165599
0.0025983361
0.002308276
0.0020450123
0.0018068891
0.0015921366
0.0013989768
0.0012256827
0.00107061
0.00093221123
0.00080903917
0.00069974388
0.00060306742
0.00051783779
0.00044296308
0.0003774265
0.00032028225
0.00027065216
0.00022772302
0.00019074437
0.00015902636
0.00013193773
0.00010890379
8.9404041e-05
7.2969812e-05
5.9181488e-05
4.7665698e-05
3.809215e-05
3.0170816e-05
2.3647774e-05
1.8304507e-05
1.3948e-05
1.0425422e-05
7.5768892e-06
5.3404025e-06
3.5046373e-06
2.2490089e-06
1.0333335e-06
1.1233056e-06
1.1222308e-06
0.0057773428
0.0056975495
0.0055176662
0.0052554976
0.0049387299
0.0045900278
0.0042259956
0.003860602
0.0035043238
0.0031638969
0.0028433337
0.0025448526
0.0022693655
0.002016835
0.0017866034
0.0015776438
0.0013887264
0.0012185274
0.0010656987
0.00092891166
0.00080688169
0.00069838064
0.00060224241
0.00051736459
0.00044270813
0.00037729631
0.0003202135
0.000270604
0.00022767103
0.00019067583
0.00015893657
0.00013182725
0.00010877628
8.926475e-05
7.2824485e-05
5.9035644e-05
4.7524185e-05
3.7958922e-05
3.0048849e-05
2.3539095e-05
1.8210311e-05
1.3868762e-05
1.0361037e-05
7.527076e-06
5.3037642e-06
3.4817907e-06
2.2340961e-06
1.0309027e-06
1.0581224e-06
9.3291734e-07
0.0046804496
0.0047137857
0.0046575213
0.0045175663
0.0043205254
0.0040829147
0.0038160699
0.0035324277
0.0032434726
0.0029576605
0.0026808442
0.0024170791
0.0021689788
0.0019379749
0.0017246281
0.0015289015
0.0013503564
0.0011882932
0.0010418526
0.00091008692
0.00079200841
0.0006866199
0.00059293545
0.00050999341
0.00043686502
0.00037266012
0.00031653119
0.00026767618
0.00022534059
0.00018881897
0.00015745575
0.00013064558
0.00010783308
8.8512107e-05
7.2224459e-05
5.8558129e-05
4.7145212e-05
3.7659353e-05
2.981334e-05
2.3355335e-05
1.8068342e-05
1.3760719e-05
1.0280207e-05
7.4691014e-06
5.2627633e-06
3.458236e-06
2.2166378e-06
1.0296077e-06
9.9045574e-07
7.663445e-07
0.0036274891
0.0037224848
0.0037431892
0.0036902115
0.0035849855
0.0034395707
0.0032606135
0.0030576667
0.0028409893
0.0026186669
0.0023967413
0.0021798722
0.0019714999
0.0017739458
0.0015886386
0.0014163441
0.0012573395
0.0011115468
0.0009786378
0.00085811375
0.00074936378
0.00065170646
0.0005644198
0.00048676292
0.00041799183
0.00035737126
0.00030418356
0.00025773566
0.00021736453
0.00018244139
0.00015237486
0.00012661325
0.00010464593
8.6003946e-05
7.0259928e-05
5.7027355e-05
4.59593e-05
3.6746637e-05
2.9116216e-05
2.2827744e-05
1.7673405e-05
1.3469511e-05
1.006895e-05
7.3211741e-06
5.1603955e-06
3.3972627e-06
2.1729118e-06
1.0197492e-06
9.0446656e-07
6.0817462e-07
0.0027221359
0.0028573162
0.0029318267
0.0029458096
0.0029125809
0.0028409432
0.0027349381
0.0026013416
0.0024485859
0.0022838867
0.00211298
0.0019406207
0.0017706408
0.0016059186
0.0014485019
0.0012997787
0.0011606169
0.0010314768
0.00091250727
0.00080362564
0.00070457923
0.00061499267
0.00053440423
0.00046229367
0.00039810382
0.00034125736
0.00029117011
0.00024726173
0.00020896421
0.00017572881
0.00014703141
0.0001223767
0.00010130115
8.3375091e-05
6.8203752e-05
5.5427592e-05
4.4721924e-05
3.5795897e-05
2.8391283e-05
2.2280041e-05
1.7264082e-05
1.3168181e-05
9.8505795e-06
7.1685173e-06
5.0543936e-06
3.3346e-06
2.1257766e-06
1.0111799e-06
8.1120267e-07
4.5986912e-07
0.0019612846
0.0021170458
0.0022246082
0.0022851192
0.0023047032
0.0022892126
0.0022412745
0.0021652944
0.0020675212
0.0019538924
0.0018294646
0.0016986736
0.0015653401
0.0014325631
0.0013027446
0.0011776911
0.0010587098
0.00094669167
0.00084218914
0.00074548682
0.00065665971
0.00057562082
0.00050215973
0.00043597372
0.00037669299
0.00032390098
0.0002771511
0.00023598032
0.00019992048
0.00016850748
0.00014128879
0.00011782941
9.7716432e-05
8.0562507e-05
6.6008111e-05
5.3722926e-05
4.34064e-05
3.4787531e-05
2.7624317e-05
2.1702031e-05
1.6833169e-05
1.2851662e-05
9.6216252e-06
7.0085936e-06
4.9431858e-06
3.268595e-06
2.0749032e-06
1.0023341e-06
7.17383e-07
3.3314002e-07
0.0013493997
0.0015057028
0.0016271638
0.0017146683
0.0017689827
0.0017930804
0.0017885116
0.0017578381
0.0017051726
0.0016349464
0.0015512762
0.0014579806
0.0013585424
0.0012559753
0.0011527755
0.0010509547
0.00095208983
0.00085737281
0.00076766428
0.00068354741
0.00060537719
0.00053332303
0.0004674055
0.00040752747
0.00035350038
0.00030506641
0.00026191707
0.00022370893
0.00019007685
0.00016064508
0.00013503646
0.00011288003
9.3816999e-05
7.7505537e-05
6.3624209e-05
5.1874421e-05
4.1981899e-05
3.3697321e-05
2.6796444e-05
2.1079125e-05
1.6369497e-05
1.2511475e-05
9.3757541e-06
6.8366491e-06
4.8234302e-06
3.1965765e-06
2.0190134e-06
9.9151831e-07
6.2683998e-07
2.3412165e-07
0.00088076419
0.0010215951
0.0011408637
0.0012382566
0.0013111227
0.0013598894
0.0013849747
0.0013874901
0.0013697164
0.0013345633
0.0012850613
0.0012242256
0.0011549738
0.0010799921
0.0010016432
0.00092194391
0.00084257149
0.00076488153
0.00068993455
0.00061852981
0.00055124069
0.00048844841
0.00043037306
0.00037710168
0.00032861312
0.00028479993
0.00024548733
0.00021044987
0.00017942567
0.00015212876
0.00012825955
0.00010751363
8.9589024e-05
7.4192017e-05
6.104175e-05
4.9873609e-05
4.0441623e-05
3.2519909e-05
2.5903502e-05
2.0408116e-05
1.5870606e-05
1.2145708e-05
9.1114876e-06
6.6514387e-06
4.6942202e-06
3.1175139e-06
1.9578937e-06
9.7751824e-07
5.4270511e-07
1.6492169e-07
0.00054018035
0.00065575392
0.00076123784
0.00085509865
0.0009330184
0.00099358746
0.0010361172
0.0010605507
0.0010677135
0.0010591456
0.0010367764
0.0010027373
0.00095924901
0.00090850098
0.00085254476
0.00079323178
0.00073218545
0.00067079069
0.00061019616
0.00055132697
0.00049490392
0.00044146539
0.00039139
0.00034491892
0.00030217703
0.0002631925
0.00022791468
0.00019623019
0.00016797731
0.00014295871
0.00012095254
0.00010172202
8.5023515e-05
7.0613318e-05
5.8253073e-05
4.7714056e-05
3.8780387e-05
3.1251259e-05
2.4942435e-05
1.9686737e-05
1.5334832e-05
1.1753123e-05
8.8279037e-06
6.452182e-06
4.5550257e-06
3.0306913e-06
1.8916727e-06
9.5923914e-07
4.6735047e-07
1.2381556e-07
0.00030802264
0.00039421895
0.00047904226
0.00056019929
0.00063300384
0.00069503253
0.00074474227
0.00078119052
0.00080412644
0.00081397423
0.00081166122
0.00079845415
0.00077584225
0.00074542949
0.00070883487
0.00066761579
0.0006232149
0.00057692764
0.00052988477
0.00048304657
0.00043720599
0.00039299763
0.00035091043
0.00031130237
0.00027441604
0.00024039438
0.0002092958
0.00018110858
0.00015576432
0.00013315012
0.00011311963
9.5502881e-05
8.0114767e-05
6.6762353e-05
5.5250961e-05
4.5389123e-05
3.6992479e-05
2.9886687e-05
2.3909546e-05
1.8912158e-05
1.4760061e-05
1.133216e-05
8.5238704e-06
6.2380089e-06
4.4053041e-06
2.9355098e-06
1.8206217e-06
9.3582726e-07
4.0209724e-07
1.0565501e-07
0.0001637416
0.00022055455
0.00028187809
0.00034516953
0.00040614914
0.00046207669
0.00051094443
0.0005512481
0.00058202085
0.00060286894
0.00061390149
0.00061562108
0.00060882755
0.00059453012
0.00057386148
0.00054800295
0.00051812455
0.00048533848
0.00045066684
0.00041502185
0.00037919539
0.00034385585
0.00030955056
0.00027671207
0.00024566717
0.00021664732
0.00018980007
0.00016520052
0.00014286283
0.00012275105
0.00010478943
8.8871782e-05
7.4869923e-05
6.2641132e-05
5.2034549e-05
4.2896556e-05
3.5075181e-05
2.8423551e-05
2.2802542e-05
1.8082532e-05
1.4144893e-05
1.0881807e-05
8.1986988e-06
6.0084584e-06
4.244861e-06
2.8317996e-06
1.745283e-06
9.0695328e-07
3.4730975e-07
1.0315458e-07
8.7924473e-05
0.00011796472
0.00015595388
0.00019947708
0.00024502033
0.00028999956
0.00033232541
0.00037025821
0.00040244232
0.00042796412
0.0004463429
0.0004574758
0.00046157529
0.00045910685
0.00045072424
0.00043720553
0.00041939628
0.00039816154
0.00037434632
0.00034874617
0.00032208698
0.00029501213
0.00026807586
0.00024174138
0.00021638303
0.00019229099
0.00016967804
0.00014868747
0.00012940168
0.00011185104
9.6022649e-05
8.1868736e-05
6.9314511e-05
5.8265313e-05
4.861298e-05
4.0241367e-05
3.3031014e-05
2.6862969e-05
2.1621828e-05
1.7197971e-05
1.3489368e-05
1.0402143e-05
7.852546e-06
5.7637755e-06
4.0740601e-06
2.7199708e-06
1.6664903e-06
8.729042e-07
3.0262414e-07
1.0865656e-07
6.3494802e-05
7.0759018e-05
8.75225e-05
0.0001117107
0.00014066767
0.00017222097
0.00020448101
0.00023574421
0.00026453982
0.00028970086
0.00031038968
0.00032608442
0.00033655053
0.0003418059
0.00034207964
0.00033776596
0.00032937754
0.00031750243
0.00030276594
0.00028579806
0.00026720745
0.00024756235
0.00022737697
0.00020710304
0.00018712554
0.00016776189
0.00014926384
0.00013182139
0.000115568
0.00010058688
8.6917677e-05
7.4563349e-05
6.3496933e-05
5.366798e-05
4.5008497e-05
3.743829e-05
3.0869637e-05
2.5211255e-05
2.0371576e-05
1.6261306e-05
1.2795504e-05
9.8947089e-06
7.4866636e-06
5.5050693e-06
3.8939203e-06
2.6010573e-06
1.5853397e-06
8.3455641e-07
2.6721513e-07
1.1579538e-07
7.6191833e-05
6.5149829e-05
6.3836701e-05
7.0593328e-05
8.3564375e-05
0.00010107971
0.00012160404
0.00014365284
0.00016584227
0.00018696487
0.00020603221
0.00022228733
0.00023520288
0.00024447066
0.00024998269
0.00025180428
0.00025014237
0.00024531225
0.00023770533
0.00022775943
0.00021593227
0.00020267936
0.00018843663
0.00017360725
0.00015855259
0.00014358652
0.00012897296
0.00011492566
0.00010161009
8.914667e-05
7.7615101e-05
6.7059296e-05
5.7492648e-05
4.8903361e-05
4.1259613e-05
3.4514399e-05
2.8609937e-05
2.3481537e-05
1.9060924e-05
1.5278963e-05
1.20679e-05
9.3628965e-06
7.1036351e-06
5.2344298e-06
3.7061512e-06
2.4766615e-06
1.5030956e-06
7.9319777e-07
2.3995608e-07
1.2051015e-07
0.00011455783
8.9555534e-05
7.3681841e-05
6.5677742e-05
6.4359551e-05
6.8545271e-05
7.7101514e-05
8.8854478e-05
0.00010263176
0.00011733391
0.00013198167
0.00014574088
0.00015793703
0.00016806258
0.000175776
0.0001808921
0.00018336567
0.00018327065
0.00018077703
0.00017612725
0.00016961342
0.00016155622
0.00015228652
0.00014213024
0.0001313962
0.00012036722
0.0001092939
9.8391096e-05
8.7836467e-05
7.7770835e-05
6.8299935e-05
5.9497203e-05
5.1407264e-05
4.4049849e-05
3.742388e-05
3.1511523e-05
2.6282047e-05
2.1695376e-05
1.7705242e-05
1.4261898e-05
1.1314403e-05
8.8123938e-06
6.707646e-06
4.9550558e-06
3.5131911e-06
2.3488855e-06
1.4211209e-06
7.5032261e-07
2.1951426e-07
1.2117452e-07
0.00016966547
0.00013458844
0.00010758935
8.7748615e-05
7.4402381e-05
6.678725e-05
6.4148011e-05
6.5640215e-05
7.0357972e-05
7.7394915e-05
8.5887634e-05
9.5043099e-05
0.00010416013
0.00011264673
0.00012003107
0.00012596487
0.00013021999
0.00013267962
0.00013332543
0.00013222211
0.00012950048
0.00012534046
0.00011995463
0.00011357338
0.00010643202
9.8760121e-05
9.0773124e-05
8.2666207e-05
7.4610222e-05
6.6749463e-05
5.9201019e-05
5.2055383e-05
4.5378068e-05
3.9211924e-05
3.3579923e-05
2.8488193e-05
2.3929107e-05
1.9884277e-05
1.6327357e-05
1.3226551e-05
1.054681e-05
8.2516737e-06
6.3047913e-06
4.6714087e-06
3.3182542e-06
2.2202582e-06
1.3408229e-06
7.0742395e-07
2.0440769e-07
1.1798018e-07
0.00023473291
0.00019285934
0.00015782966
0.00012898987
0.00010605013
8.8575536e-05
7.6127799e-05
6.8162774e-05
6.4043883e-05
6.3089792e-05
6.4609575e-05
6.7926468e-05
7.2399329e-05
7.7443131e-05
8.2545745e-05
8.7279263e-05
9.1305754e-05
9.4378012e-05
9.6335977e-05
9.7099557e-05
9.6658759e-05
9.5062098e-05
9.2404185e-05
8.8813309e-05
8.4439681e-05
7.9444845e-05
7.399253e-05
6.8241167e-05
6.2338066e-05
5.641527e-05
5.0586894e-05
4.4947806e-05
3.9573438e-05
3.4520489e-05
2.9828316e-05
2.5520798e-05
2.1608484e-05
1.8090857e-05
1.4958598e-05
1.2195728e-05
9.7815719e-06
7.6925123e-06
5.9034352e-06
4.3894287e-06
3.125444e-06
2.0937391e-06
1.2636883e-06
6.658884e-07
1.9314352e-07
1.1202537e-07
0.00030472142
0.00025869781
0.00021827172
0.00018298604
0.00015280044
0.00012751935
0.00010694753
9.0787888e-05
7.8643203e-05
7.0051029e-05
6.4509343e-05
6.1493839e-05
6.0475322e-05
6.0938554e-05
6.2399903e-05
6.4421802e-05
6.6623495e-05
6.8688041e-05
7.0365622e-05
7.1473371e-05
7.18921e-05
7.1560554e-05
7.0467876e-05
6.8644948e-05
6.6155274e-05
6.3085941e-05
5.9539159e-05
5.5624655e-05
5.1453202e-05
4.7131343e-05
4.2757389e-05
3.8418607e-05
3.4189507e-05
3.0131082e-05
2.6290852e-05
2.2703528e-05
1.9392129e-05
1.6369407e-05
1.3639429e-05
1.1199216e-05
9.0403367e-06
7.1504423e-06
5.5145562e-06
4.1167724e-06
2.9399048e-06
1.9727819e-06
1.1913762e-06
6.2698176e-07
1.8442516e-07
1.0455198e-07
0.00037596852
0.00032785371
0.00028417612
0.0002446197
0.00020929604
0.00017817187
0.00015122407
0.00012834238
0.00010932332
9.3894411e-05
8.1731264e-05
7.2468022e-05
6.5709172e-05
6.104418e-05
5.8062749e-05
5.6368839e-05
5.5592781e-05
5.5401178e-05
5.55043e-05
5.5660735e-05
5.5679304e-05
5.5418454e-05
5.4783496e-05
5.3722123e-05
5.2218717e-05
5.0287914e-05
4.7967901e-05
4.5313853e-05
4.23918e-05
3.9273194e-05
3.6030295e-05
3.2732481e-05
2.9443462e-05
2.6219375e-05
2.310767e-05
2.0146668e-05
1.7365676e-05
1.4785526e-05
1.2419413e-05
1.0273928e-05
8.350184e-06
6.6450038e-06
5.1519791e-06
3.863005e-06
2.7679746e-06
1.8614476e-06
1.1258612e-06
5.9192728e-07
1.7738108e-07
9.6558846e-08
0.00044587592
0.00039721634
0.00035196797
0.00030991409
0.00027124699
0.00023603493
0.00020436666
0.00017626243
0.00015166345
0.0001304483
0.00011244321
9.7426763e-05
8.5136304e-05
7.5277624e-05
6.7536316e-05
6.158918e-05
5.711518e-05
5.3805546e-05
5.1372615e-05
4.9556982e-05
4.8132678e-05
4.6910301e-05
4.573815e-05
4.4501559e-05
4.312068e-05
4.1547066e-05
3.9759398e-05
3.7758728e-05
3.5563575e-05
3.3205134e-05
3.0722852e-05
2.8160513e-05
2.5562958e-05
2.2973457e-05
2.0431767e-05
1.7972807e-05
1.5625899e-05
1.3414481e-05
1.1356206e-05
9.4633366e-06
7.7433348e-06
6.199629e-06
4.8323605e-06
3.639639e-06
2.6172513e-06
1.7644881e-06
1.0695493e-06
5.6200713e-07
1.7169055e-07
8.8731556e-08
0.00051265535
0.00046456887
0.00041901813
0.00037585638
0.00033530786
0.00029749774
0.00026257969
0.00023065726
0.00020177156
0.00017591218
0.00015302278
0.00013300169
0.00011570395
0.00010094654
8.8515602e-05
7.8174383e-05
6.9671679e-05
6.2750357e-05
5.7155694e-05
5.2642985e-05
4.8984103e-05
4.5972706e-05
4.3427974e-05
4.1196817e-05
3.9154623e-05
3.720467e-05
3.5276432e-05
3.3323003e-05
3.1317938e-05
2.925175e-05
2.7128315e-05
2.4961383e-05
2.2771361e-05
2.0582486e-05
1.8420452e-05
1.6310527e-05
1.4276149e-05
1.2337972e-05
1.0513315e-05
8.8159479e-06
7.2561478e-06
5.8410038e-06
4.5747999e-06
3.4599196e-06
2.4964947e-06
1.68734e-06
1.0253204e-06
5.386415e-07
1.6755963e-07
8.1512043e-08
0.00057512664
0.00052838305
0.00048344771
0.00044022402
0.00039893707
0.00035973818
0.0003228119
0.00028830868
0.00025633245
0.000226948
0.00020018362
0.00017602915
0.00015443507
0.00013531426
0.00011854571
0.00010397906
9.1440168e-05
8.0737192e-05
7.1667274e-05
6.4023188e-05
5.7599751e-05
5.2199602e-05
4.763816e-05
4.374754e-05
4.0379356e-05
3.7406364e-05
3.4723015e-05
3.2245022e-05
2.9908102e-05
2.766608e-05
2.5488566e-05
2.3358381e-05
2.1268919e-05
1.9221592e-05
1.7223478e-05
1.5285245e-05
1.3419413e-05
1.1638967e-05
9.9563167e-06
8.3825889e-06
6.9272064e-06
5.597748e-06
4.3999561e-06
3.3382583e-06
2.4152866e-06
1.6359577e-06
9.9644638e-07
5.2339723e-07
1.6556459e-07
7.5173029e-08
0.00063255965
0.00058765188
0.00054396028
0.00050142561
0.00046025556
0.00042060767
0.0003826744
0.00034662685
0.00031260346
0.00028071507
0.00025104587
0.00022365026
0.00019855017
0.00017573461
0.00015516063
0.00013675523
0.00012041817
0.00010602563
9.3434716e-05
8.2488431e-05
7.3020931e-05
6.4862767e-05
5.7845877e-05
5.1808086e-05
4.6596948e-05
4.2072787e-05
3.8110879e-05
3.4602746e-05
3.1456629e-05
2.8597212e-05
2.5964727e-05
2.3513581e-05
2.1210652e-05
1.9033405e-05
1.6967943e-05
1.5007126e-05
1.3148823e-05
1.1394378e-05
9.7473093e-06
8.2122764e-06
6.7943007e-06
5.4982581e-06
4.3285434e-06
3.289223e-06
2.3833832e-06
1.616438e-06
9.863626e-07
5.1790836e-07
1.6644702e-07
6.9865134e-08
0.00068454977
0.0006417541
0.00059970102
0.00055836063
0.00051791379
0.00047851248
0.00044034262
0.00040357841
0.00036837261
0.00033486008
0.00030315795
0.00027336207
0.00024554369
0.00021974762
0.00019599157
0.00017426605
0.00015453513
0.00013673799
0.00012079129
0.00010659233
9.4022653e-05
8.2952132e-05
7.3243153e-05
6.4754817e-05
5.7346918e-05
5.0883525e-05
4.5236045e-05
4.0285653e-05
3.5925059e-05
3.2059593e-05
2.8607646e-05
2.550054e-05
2.2681926e-05
2.0106797e-05
1.7740255e-05
1.5556122e-05
1.3535506e-05
1.16654e-05
9.9373795e-06
8.3464581e-06
6.8901164e-06
5.5675517e-06
4.3790822e-06
3.3259883e-06
2.4096903e-06
1.6343888e-06
9.9828091e-07
5.2370223e-07
1.7092473e-07
6.5650493e-08
0.00073092109
0.00069034642
0.00065014126
0.00061030024
0.00057097376
0.000532302
0.00049445627
0.00045760308
0.00042189611
0.00038747882
0.00035448417
0.00032303135
0.00029322235
0.0002651396
0.00023884437
0.00021437546
0.00019174861
0.00017095637
0.00015196888
0.00013473526
0.00011918561
0.00010523365
9.277972e-05
8.171411e-05
7.1920495e-05
6.3279362e-05
5.5671252e-05
4.8979683e-05
4.3093662e-05
3.7909696e-05
3.3333282e-05
2.9279856e-05
2.5675243e-05
2.2455657e-05
1.956731e-05
1.6965744e-05
1.4614936e-05
1.2486292e-05
1.0557587e-05
8.8119284e-06
7.2367923e-06
5.8231891e-06
4.5649276e-06
3.4582448e-06
2.5008516e-06
1.6940327e-06
1.0346457e-06
5.4193689e-07
1.7954085e-07
6.2530959e-08
0.00077164386
0.00073327055
0.00069497704
0.00065677964
0.00061879819
0.00058115858
0.00054401389
0.00050751712
0.00047181485
0.00043704906
0.00040335683
0.00037086746
0.00033969942
0.0003099579
0.00028173281
0.00025509695
0.00023010455
0.00020679016
0.00018516819
0.00016523294
0.00014695932
0.00013030401
0.00011520722
0.0001015949
8.9381286e-05
7.8471661e-05
6.8765255e-05
6.0158093e-05
5.2545719e-05
4.5825651e-05
3.9899508e-05
3.4674742e-05
3.0065947e-05
2.5995737e-05
2.2395219e-05
1.9204107e-05
1.6370516e-05
1.3850527e-05
1.1607564e-05
9.6116725e-06
7.8387523e-06
6.2698096e-06
4.8902295e-06
3.6893131e-06
2.6592769e-06
1.7969371e-06
1.0963749e-06
5.73022e-07
1.9251818e-07
6.0464195e-08
0.00080677903
0.00077048932
0.00073405746
0.00069752013
0.00066096841
0.00062451366
0.00058829008
0.00055243488
0.00051708338
0.00048237037
0.00044842964
0.0004153918
0.00038338162
0.00035251589
0.00032290131
0.00029463258
0.00026779047
0.00024244028
0.00021863053
0.00019639216
0.00017573812
0.00015666349
0.00013914604
0.00012314738
0.00010861439
9.5481241e-05
8.3671484e-05
7.3100519e-05
6.3678057e-05
5.5310591e-05
4.7903756e-05
4.1364477e-05
3.5602851e-05
3.0533696e-05
2.6077761e-05
2.2162576e-05
1.8722971e-05
1.5701278e-05
1.3047288e-05
1.0717982e-05
8.6771215e-06
6.894748e-06
5.3466042e-06
4.0137228e-06
2.8814602e-06
1.9409236e-06
1.1822166e-06
6.1630841e-07
2.0967409e-07
5.937431e-08
0.00083639663
0.0008019955
0.00076728482
0.00073232097
0.00069716902
0.00066192714
0.00062671185
0.00059164457
0.00055684805
0.00052244717
0.00048856852
0.00045533876
0.00042288245
0.00039132027
0.0003607671
0.00033133014
0.00030310694
0.00027618369
0.00025063344
0.00022651485
0.00020387101
0.00018272881
0.00016309857
0.00014497422
0.00012833384