/*--------------------------------*- C++ -*----------------------------------*\
  =========                 |
  \\      /  F ield         | OpenFOAM: The Open Source CFD Toolbox
   \\    /   O peration     | Website:  https://openfoam.org
    \\  /    A nd           | Version:  6
     \\/     M anipulation  |
\*---------------------------------------------------------------------------*/
FoamFile
{
    version     2.0;
    format      ascii;
    class       surfaceScalarField;
    location    "208";
    object      phi;
}
// * * * * * * * * * * * * * * * * * * * * * * * * * * * * * * * * * * * * * //

dimensions      [0 3 -1 0 0 0 0];

internalField   nonuniform List<scalar> 
18180
(
0.00031872916
-0.00016315995
-0.00015556921
0.0013092106
-0.0013669155
0.00037643409
0.0030328866
-0.0033336192
0.0016099431
0.0055497718
-0.005975958
0.0034590728
0.0089181941
-0.009239078
0.0058706557
0.013192808
-0.013079527
0.0088049134
0.018421935
-0.017459838
0.012230711
0.024644596
-0.022345796
0.016123136
0.031887359
-0.027703312
0.020460549
0.040161267
-0.033495802
0.025221895
0.04945915
-0.039682434
0.030384551
0.059753701
-0.046217204
0.035922653
0.070996708
-0.053048843
0.041805836
0.08311991
-0.060121577
0.047998375
0.096038081
-0.06737683
0.054458659
0.10965487
-0.07475599
0.061139205
0.1238708
-0.082204081
0.067988149
0.13859853
-0.089674064
0.074946337
0.15383662
-0.09714881
0.081910712
-0.10462595
0.088678866
0.1697837
0.00039749695
-0.0005606569
0.0016095942
-0.0025790128
0.0036893169
-0.0054133418
0.0066874415
-0.0089740825
0.010650649
-0.013202285
0.015617864
-0.018046743
0.021616252
-0.023458225
0.028657248
-0.029386793
0.036732933
-0.035778997
0.04581313
-0.042576
0.055843671
-0.049712976
0.066746184
-0.057119717
0.07841964
-0.064722298
0.090743754
-0.072445692
0.10358404
-0.080217114
0.11679788
-0.087969836
0.13024075
-0.09564695
0.14377295
-0.10320626
0.15725855
-0.11063441
-0.11786188
0.17049448
0.00048062329
-0.0010412802
0.0019186977
-0.0040170872
0.0043524775
-0.0078471217
0.007816561
-0.012438166
0.012337661
-0.017723385
0.017929201
-0.023638284
0.024586241
-0.030115265
0.0322812
-0.037081751
0.040960828
-0.044458625
0.050544907
-0.052160078
0.060927052
-0.06009512
0.071977788
-0.068170453
0.083549778
-0.076294289
0.095484791
-0.084380704
0.10762167
-0.092353991
0.11980424
-0.10015241
0.13188799
-0.1077307
0.14374347
-0.11506175
0.15524869
-0.12213963
-0.12891427
0.16630109
0.00056616953
-0.0016074497
0.0022279418
-0.0056788594
0.0050006098
-0.01061979
0.0088940081
-0.016331564
0.013905254
-0.022734631
0.020011876
-0.029744906
0.02716648
-0.037269869
0.035293408
-0.045208679
0.044287846
-0.053453064
0.054017765
-0.061889997
0.064328706
-0.070406062
0.075051117
-0.078892863
0.08600951
-0.087252682
0.097032485
-0.095403679
0.10796245
-0.10328396
0.11866395
-0.1108539
0.12902964
-0.11809639
0.13898296
-0.12501507
0.14847491
-0.13163158
-0.13794518
0.15750582
0.00065088608
-0.0022583358
0.002524341
-0.0075523144
0.0056036331
-0.013699082
0.0098644626
-0.020592394
0.015264608
-0.028134776
0.021736405
-0.036216704
0.029182476
-0.04471594
0.037474887
-0.05350109
0.046457994
-0.062436171
0.055954829
-0.071386831
0.065776423
-0.080227656
0.075733003
-0.088849444
0.085645709
-0.097165388
0.095357388
-0.10511536
0.1047412
-0.11266777
0.11370619
-0.11981889
0.12219936
-0.12658957
0.13020456
-0.13302027
0.137738
-0.13916502
-0.14506756
0.14486038
0.00073063567
-0.0029889715
0.0027920857
-0.0096137644
0.0061265731
-0.017033569
0.01066671
-0.025132531
0.016322647
-0.033790713
0.022975239
-0.042869296
0.030474424
-0.052215124
0.038642392
-0.061669058
0.047281181
-0.07107496
0.056183726
-0.080289376
0.065146878
-0.089190809
0.073984592
-0.097687157
0.082539477
-0.10572027
0.090691296
-0.11326718
0.098361451
-0.12033793
0.1055133
-0.12697074
0.11214879
-0.13322506
0.1183024
-0.13917388
0.12403363
-0.14489624
-0.15046328
0.12942935
0.00080073103
-0.0037897025
0.0030139155
-0.011826949
0.0065328931
-0.020552547
0.01124005
-0.029839687
0.016992694
-0.039543357
0.023618541
-0.049495143
0.03091821
-0.059514794
0.038673313
-0.069424161
0.046658767
-0.079060414
0.054657392
-0.088288001
0.062474454
-0.09700787
0.069949952
-0.10516265
0.076966961
-0.11273728
0.0834551
-0.11975532
0.089389112
-0.12627194
0.094783318
-0.13236494
0.09968331
-0.13812505
0.1041565
-0.14364707
0.10828311
-0.14902285
-0.15433355
0.11215338
0.00085605855
-0.0046457611
0.0031720601
-0.01414295
0.0067872246
-0.024167711
0.0115298
-0.034582263
0.017203431
-0.045216988
0.023586545
-0.055878257
0.030439871
-0.06636812
0.037519325
-0.076503614
0.044591796
-0.086132885
0.051451001
-0.095147206
0.057930631
-0.1034875
0.063912776
-0.1111448
0.069330645
-0.11815515
0.074165695
-0.12459037
0.078440259
-0.13054651
0.082207341
-0.13613202
0.085539508
-0.14145722
0.088518568
-0.14662613
0.091227367
-0.15173165
-0.15685204
0.093745852
0.00089026221
-0.0055360233
0.0032482827
-0.016500971
0.0068576211
-0.02777705
0.011492462
-0.039217105
0.016906807
-0.050631333
0.022838893
-0.061810342
0.029023667
-0.072552895
0.035209248
-0.082689195
0.041173927
-0.092097564
0.046740396
-0.10071368
0.051784656
-0.10853176
0.056238409
-0.11559855
0.060085142
-0.12200188
0.063351251
-0.12785647
0.066094219
-0.13328947
0.068390062
-0.13842787
0.07032193
-0.14338909
0.071971244
-0.14827545
0.073411934
-0.15317234
-0.15814769
0.074707587
0.0008998181
-0.0064358414
0.00323338
-0.018834533
0.0067291631
-0.031272833
0.011111175
-0.043599117
0.016092483
-0.055612641
0.021384621
-0.06710248
0.026713883
-0.077882157
0.031839115
-0.087814427
0.036567086
-0.096825534
0.040762272
-0.10490886
0.044349476
-0.11211896
0.047309352
-0.11855843
0.049668409
-0.12436094
0.051485818
-0.12967388
0.05283953
-0.13464318
0.053813825
-0.13940216
0.054489716
-0.14406498
0.054938825
-0.14872456
0.055220553
-0.15345407
0.055380988
-0.15830813
-0.0002023782
0.00020237821
-2.7706234e-12
-0.00067774625
0.00047536805
-3.1771639e-12
-0.0013424253
0.00066467909
-2.5631817e-12
-0.0021322934
0.00078986811
-1.920609e-12
-0.0029957721
0.00086347867
-1.1779464e-12
-0.003890739
0.00089496693
-5.5262129e-13
-0.0047822943
0.00089155523
2.3497293e-13
-0.0056408912
0.00085859693
8.675199e-13
-0.006440866
0.00079997483
1.7140307e-12
-0.0071592869
0.00071842081
2.3268454e-12
-0.0077750352
0.00061574837
3.2046495e-12
-0.008268071
0.00049303574
3.7870363e-12
-0.0086188524
0.00035078145
4.633186e-12
-0.0088079032
0.00018905073
5.0037283e-12
-0.0088155567
7.6535412e-06
5.4813301e-12
-0.0086219804
-0.00019357631
5.3142999e-12
-0.0082074391
-0.00041454127
5.2940153e-12
-0.0075518901
-0.00065554907
4.5452963e-12
-0.006634577
-0.00091731309
3.6233997e-12
-0.0011862298
-0.0054483472
1.7389585e-12
-0.00018797443
0.00039035263
-0.0006250069
0.00091240052
-0.001228753
0.0012684252
-0.0019351942
0.0014963093
-0.0026921389
0.0016204233
-0.0034562836
0.0016591117
-0.0041910667
0.0016263383
-0.0048648584
0.0015323886
-0.0054495236
0.00138464
-0.0059192866
0.0011881838
-0.0062498155
0.00094627725
-0.0064174806
0.00066070085
-0.0063987496
0.00033205046
-0.0061697084
-3.9990472e-05
-0.0057057361
-0.00045631876
-0.0049814247
-0.00091788766
-0.0039707952
-0.0014251708
-0.0026472181
-0.0019791262
-0.00098326366
-0.0025812676
-0.0032017792
0.0010322857
-0.00015892783
0.00054928046
-0.00051889136
0.0012723641
-0.0010007699
0.0017503037
-0.0015412592
0.0020367986
-0.0020873497
0.0021665138
-0.002593735
0.0021654971
-0.0030208682
0.0020534714
-0.0033332937
0.0018448142
-0.0034983024
0.0015496488
-0.0034848554
0.0011747367
-0.0032626998
0.00072412165
-0.0028016493
0.00019965037
-0.0020709504
-0.00039864847
-0.0010387683
-0.0010721726
0.00032824225
-0.0018233293
0.0020652135
-0.0026548589
0.0042090245
-0.0035689817
0.0067979949
-0.0045680966
0.0098718162
-0.0056550888
-0.0067797317
0.013449769
-0.00011756693
0.00066684739
-0.00036699848
0.0015217956
-0.00067351355
0.0020568188
-0.00097482553
0.0023381106
-0.0012168539
0.0024085422
-0.0013515942
0.0023002373
-0.0013354601
0.0020373374
-0.0011278293
0.0016371833
-0.00068984649
0.001111666
1.6528407e-05
0.00046836183
0.0010293046
-0.00028865457
0.0023871074
-0.0011581524
0.0041297232
-0.0021412643
0.0062985812
-0.0032410306
0.0089372597
-0.0044620077
0.012092042
-0.0058096414
0.015812293
-0.0072892321
0.020150154
-0.0089059582
0.025160337
-0.010665272
-0.012492606
0.030873212
-6.6907632e-05
0.00073375502
-0.0001791665
0.0016340545
-0.00026653384
0.0021441861
-0.00026769158
0.0023392683
-0.00012719454
0.0022680451
0.00020616636
0.0019668764
0.00078069263
0.0014628111
0.0016429476
0.00077492831
0.0028387264
-8.4112749e-05
0.0044138412
-0.001106753
0.0064146854
-0.0022894988
0.0088886497
-0.0036321167
0.011884447
-0.005137062
0.015452445
-0.0068090277
0.019645034
-0.0086545967
0.024517253
-0.010681861
0.030127668
-0.012899646
0.036538874
-0.015317165
0.043818271
-0.017944669
-0.020682522
0.052008186
-9.9846354e-06
0.00074373965
3.4534927e-05
0.0015895349
0.00019989003
0.001978831
0.00054676543
0.0019923929
0.0011322465
0.001682564
0.0020109801
0.0010881428
0.0032361384
0.00023765287
0.0048603018
-0.0008492351
0.0069361169
-0.0021599279
0.0095166705
-0.0036873066
0.012655698
-0.0054285265
0.016407689
-0.0073841073
0.020827811
-0.0095571843
0.025971753
-0.011952969
0.031895621
-0.014578465
0.038656245
-0.017442485
0.046312358
-0.020555759
0.054926657
-0.023931464
0.064569638
-0.02758765
-0.031405572
0.075292688
5.0751275e-05
0.00069298838
0.00026565762
0.0013746286
0.00070825401
0.0015362346
0.0014390296
0.0012616173
0.0025168191
0.00060477455
0.0039995644
-0.0003946025
0.0059449115
-0.0017076942
0.0084105988
-0.0033149224
0.011454588
-0.0052039172
0.015135033
-0.0073677516
0.019510011
-0.0098035049
0.024636997
-0.012511093
0.030572126
-0.015492313
0.037369296
-0.018750139
0.045079234
-0.022288404
0.053748954
-0.026112205
0.063422564
-0.030229369
0.074144665
-0.034653565
0.085969289
-0.039412275
-0.044388476
0.098952193
0.00011379625
0.00057919213
0.00050850318
0.00097992164
0.0012459818
0.00079875601
0.0023867765
0.00012082259
0.0039912391
-0.00099968797
0.0061198732
-0.0025232366
0.0088333157
-0.0044211367
0.01219216
-0.0066737664
0.016256549
-0.0092683069
0.021085435
-0.012196637
0.026735534
-0.015453604
0.033260006
-0.019035565
0.040706864
-0.022939171
0.049117168
-0.027160442
0.058523126
-0.031694362
0.068946473
-0.036535552
0.080398288
-0.041681184
0.09288211
-0.047137387
0.10640544
-0.052935608
-0.058995639
0.12101261
0.00017849575
0.00040069638
0.0007600296
0.00039838779
0.0018053382
-0.0002465526
0.0033747124
-0.0014485516
0.0055289933
-0.0031539689
0.0083293161
-0.0053235594
0.011836485
-0.0079283059
0.016110052
-0.010947333
0.021207034
-0.014365289
0.027180293
-0.018169896
0.034076605
-0.022349916
0.041934462
-0.026893422
0.050781642
-0.031786351
0.060632571
-0.037011372
0.071485473
-0.042547264
0.083319361
-0.048369439
0.096091828
-0.054453651
0.10974039
-0.060785949
0.12419596
-0.06739118
-0.074274586
0.13947491
0.00024512718
0.001019949
0.0023833396
0.0043938608
0.0071105476
0.010591902
0.014894306
0.020070109
0.026165369
0.033217368
0.041252003
0.050281233
0.060300718
0.071287722
0.083199116
0.095968882
0.10950338
0.12366377
0.1381833
0.15258758
-0.0035077228
-0.0019406244
-1.6848931e-12
-0.001285939
-0.0022217838
-5.1124417e-12
0.001194669
-0.002480608
-4.2883707e-12
0.003877202
-0.002682533
-1.0618856e-12
0.0067348563
-0.0028576543
-4.1598069e-13
0.0097503259
-0.0030154696
-4.9578998e-12
0.012904676
-0.0031543504
-7.7093027e-12
0.016179885
-0.0032752085
-1.4825258e-11
0.01956025
-0.003380365
-2.2441161e-11
0.023031553
-0.0034713028
-3.0168939e-11
0.026580507
-0.003548954
-3.6234376e-11
0.030194687
-0.0036141804
-4.0581643e-11
0.033862451
-0.0036677636
-4.4174123e-11
0.037572801
-0.0037103505
-4.6389333e-11
0.041315287
-0.0037424858
-4.6860458e-11
0.045079936
-0.0037646492
-4.488343e-11
0.048857208
-0.0037772718
-3.9838771e-11
0.052637959
-0.0037807504
-3.1365523e-11
0.05641342
-0.0037754613
-1.9055078e-11
0.060175192
-0.0037617724
-2.7111695e-12
0.063915244
-0.0037400517
1.7072607e-11
0.067625917
-0.0037106731
3.9504247e-11
0.071299938
-0.0036740214
6.3459953e-11
0.074930432
-0.0036304934
8.7940085e-11
0.07851093
-0.0035804984
1.1162872e-10
0.082035387
-0.0035244574
1.3313328e-10
0.085498188
-0.0034628005
1.5060206e-10
0.088894151
-0.003395964
1.622342e-10
0.092218538
-0.0033243871
1.6602384e-10
0.095467046
-0.0032485079
1.6032353e-10
0.098635806
-0.0031687605
1.4364022e-10
0.10172138
-0.0030855711
1.1531475e-10
0.10472073
-0.0029993553
7.5379073e-11
0.10763125
-0.0029105164
2.5379257e-11
0.11045069
-0.0028194439
-3.2071669e-11
0.11317721
-0.0027265132
-9.2397002e-11
0.11580929
-0.002632087
-1.5034857e-10
0.11834581
-0.0025365173
-1.9909134e-10
0.12078596
-0.002440153
-2.3259017e-10
0.1231293
-0.0023433405
-2.4515504e-10
0.12537577
-0.0022464656
-2.3350499e-10
0.12752565
-0.0021498796
-1.9716048e-10
0.12957992
-0.0020542718
-1.3924819e-10
0.13153955
-0.0019596311
-6.6754054e-11
0.13340863
-0.0018690778
1.0007449e-11
0.13518566
-0.0017770335
7.89776e-11
0.1368951
-0.0017094358
1.2949246e-10
0.13849279
-0.0015976945
1.5188112e-10
0.14017956
-0.0016867635
1.4628892e-10
-0.0013309601
7.0814393e-11
0.0028528972
-0.0037612359
0.0049500393
-0.0043189259
0.0072928933
-0.004823462
0.0098190173
-0.0052086569
0.01250735
-0.005545987
0.015345566
-0.0058536857
0.018316924
-0.0061257087
0.021405019
-0.0063633025
0.024595829
-0.0065711759
0.027876595
-0.0067520679
0.031235182
-0.0069075415
0.034660111
-0.007039109
0.038140523
-0.0071481763
0.041666074
-0.0072359009
0.045226844
-0.0073032561
0.048813301
-0.0073511058
0.052416264
-0.0073802356
0.05602689
-0.0073913764
0.059636659
-0.0073852298
0.063237377
-0.00736249
0.066821183
-0.0073238583
0.070380565
-0.0072700546
0.073908367
-0.007201824
0.077397813
-0.0071199391
0.080842516
-0.0070252011
0.084236493
-0.0069184352
0.08757418
-0.006800487
0.090850432
-0.0066722159
0.094060533
-0.0065344879
0.097200193
-0.0063881678
0.10026555
-0.0062341133
0.10325314
-0.0060731668
0.10615994
-0.0059061511
0.10898329
-0.0057338648
0.11172092
-0.0055570796
0.11437095
-0.00537654
0.11693183
-0.0051929664
0.11940237
-0.0050070581
0.12178173
-0.00481951
0.1240694
-0.0046310112
0.12626526
-0.0044423325
0.12836956
-0.0042541743
0.1303832
-0.0040679133
0.1323071
-0.0038835307
0.13414526
-0.0037072349
0.13589619
-0.0035279685
0.13758388
-0.0033971298
0.13916524
-0.0031790466
0.14083585
-0.0033573797
-0.0026594659
0.015021101
-0.0053325681
0.016852196
-0.0061500212
0.018905728
-0.0068769935
0.021111767
-0.0074146966
0.023458681
-0.0078929003
0.025942815
-0.0083378198
0.028551551
-0.0087344453
0.03127141
-0.0090831615
0.034091291
-0.0093910567
0.037000964
-0.0096617405
0.039990307
-0.0098968852
0.043049462
-0.010098263
0.046168902
-0.010267616
0.049339372
-0.010406371
0.052551843
-0.010515727
0.055797504
-0.010596767
0.059067764
-0.010650496
0.062354261
-0.010677874
0.065648873
-0.010679841
0.068943733
-0.010657351
0.072231255
-0.01061138
0.075504151
-0.01054295
0.078755455
-0.010453128
0.081978545
-0.01034303
0.085167164
-0.01021382
0.088315434
-0.010066705
0.091417869
-0.0099029218
0.094469387
-0.0097237338
0.097465313
-0.0095304138
0.10040138
-0.0093242377
0.10327374
-0.0091064691
0.10607892
-0.0088783527
0.10881388
-0.0086411046
0.11147592
-0.0083959062
0.11406274
-0.0081439008
0.11657239
-0.0078861925
0.11900328
-0.0076238507
0.12135414
-0.0073579163
0.12362405
-0.0070894237
0.12581244
-0.0068194021
0.12791911
-0.0065490037
0.12994422
-0.0062792779
0.13188858
-0.0060122819
0.13375306
-0.0057480051
0.13554148
-0.0054956609
0.13725247
-0.0052389582
0.13890904
-0.0050536977
0.14047042
-0.0047404241
0.1421216
-0.0050085564
-0.0039962091
0.032056499
-0.0065158544
0.03347169
-0.007565213
0.035077188
-0.0084824914
0.036800016
-0.009137524
0.038640858
-0.009733743
0.040606013
-0.010302975
0.042688309
-0.010816741
0.044878223
-0.011273075
0.047168177
-0.011681012
0.049550945
-0.012044509
0.052018819
-0.012364759
0.054563842
-0.012643286
0.057178003
-0.012881778
0.059853261
-0.013081629
0.062581551
-0.013244018
0.065354831
-0.013370046
0.068165118
-0.013460783
0.071004537
-0.013517292
0.073865352
-0.013540657
0.076740013
-0.013532012
0.079621187
-0.013492554
0.082501794
-0.013423557
0.085375039
-0.013326373
0.08823444
-0.01320243
0.091073851
-0.013053232
0.093887486
-0.012880339
0.09666993
-0.012685366
0.099416152
-0.012469956
0.10212152
-0.012235777
0.10478177
-0.011984496
0.10739307
-0.01171777
0.10995195
-0.011437232
0.11245533
-0.011144479
0.11490049
-0.010841063
0.11728507
-0.010528489
0.11960709
-0.010208212
0.12186489
-0.0098816425
0.12405713
-0.0095501569
0.12618283
-0.0092151249
0.12824134
-0.0088779129
0.13023239
-0.0085400521
0.13215605
-0.0082029415
0.13401308
-0.0078693107
0.13580426
-0.0075391817
0.13753324
-0.0072246494
0.13919884
-0.0069045564
0.14082269
-0.0066775427
0.14236748
-0.006285222
0.14400295
-0.0066440236
-0.0053570834
0.052648473
-0.0071561414
0.053489053
-0.0084057927
0.054483159
-0.0094765982
0.055565106
-0.01021947
0.056749708
-0.010918346
0.058051261
-0.011604527
0.059468275
-0.012233755
0.060995881
-0.012800682
0.06262987
-0.013315
0.064365644
-0.013780282
0.066197681
-0.014196796
0.068119713
-0.014565318
0.070124974
-0.014887039
0.072206363
-0.015163018
0.074356532
-0.015394187
0.07656797
-0.015581483
0.078833082
-0.015725896
0.081144275
-0.015828485
0.083494022
-0.015890403
0.085874917
-0.015912908
0.088279736
-0.015897373
0.090701476
-0.015845297
0.093133398
-0.015758294
0.095569059
-0.015638091
0.098002345
-0.015486518
0.10042749
-0.015305483
0.10283909
-0.015096966
0.10523212
-0.01486299
0.10760195
-0.014605607
0.10994433
-0.014326872
0.11225539
-0.014028831
0.11453165
-0.013713496
0.11677002
-0.013382844
0.11896775
-0.013038791
0.12112245
-0.012683198
0.12323211
-0.01231787
0.12529502
-0.011944553
0.12730983
-0.011564959
0.12927549
-0.011180792
0.13119133
-0.010793755
0.13305704
-0.01040576
0.13487266
-0.010018558
0.13663889
-0.0096355433
0.13835651
-0.0092568018
0.14002902
-0.008897155
0.1416555
-0.0085310427
0.14325593
-0.0082779714
0.14479744
-0.0078267263
0.14643082
-0.008277412
-0.0067653279
0.075221665
-0.0070851176
0.075326616
-0.0085107441
0.075550974
-0.0097009559
0.075851253
-0.01051975
0.07625549
-0.011322582
0.076780536
-0.012129574
0.077429428
-0.012882646
0.078202094
-0.013573348
0.079096844
-0.01420975
0.080110529
-0.014793967
0.081238905
-0.015325172
0.082476677
-0.015803089
0.08381766
-0.016228022
0.085255074
-0.016600432
0.086781742
-0.016920856
0.088390213
-0.017189954
0.090072867
-0.017408549
0.091822025
-0.017577644
0.093630045
-0.017698423
0.095489388
-0.01777225
0.097392688
-0.017800673
0.099332802
-0.017785411
0.10130286
-0.017728354
0.1032963
-0.017631534
0.10530691
-0.017497121
0.10732881
-0.017327385
0.10935653
-0.017124687
0.11138498
-0.016891439
0.11340947
-0.016630093
0.1154257
-0.016343101
0.11742977
-0.016032907
0.11941819
-0.015701916
0.12138783
-0.015352484
0.12333595
-0.014986904
0.12526015
-0.0146074
0.12715841
-0.014216128
0.12902903
-0.013815181
0.13087068
-0.013406608
0.13268234
-0.012992453
0.13446335
-0.012574764
0.13621343
-0.012155837
0.13793266
-0.011737786
0.13962177
-0.01132466
0.14128162
-0.010916649
0.14291559
-0.010531123
0.14452319
-0.010138648
0.14612255
-0.0098773288
0.14768595
-0.0093901251
0.14934284
-0.0099343046
-0.0082530557
0.098025192
-0.0061581162
0.097257911
-0.0077434632
0.096581612
-0.0090246569
0.095997167
-0.0099353044
0.095540703
-0.010866119
0.095223453
-0.011812324
0.095050785
-0.012709978
0.0950267
-0.013549264
0.095150732
-0.014333782
0.095419616
-0.01506285
0.09582899
-0.015734547
0.096373445
-0.016347545
0.097046497
-0.016901074
0.097840913
-0.017394847
0.098749009
-0.017828952
0.099762812
-0.018203758
0.10087419
-0.018519925
0.10207495
-0.018778408
0.10335698
-0.018980447
0.10471227
-0.019127544
0.10613305
-0.019221453
0.1076118
-0.019264157
0.1091413
-0.019257856
0.11071469
-0.019204932
0.1123255
-0.019107931
0.11396765
-0.018969528
0.11563546
-0.018792496
0.11732369
-0.018579676
0.11902755
-0.018333949
0.12074264
-0.018058197
0.12246503
-0.017755289
0.12419116
-0.017428046
0.1259179
-0.017079231
0.12764253
-0.016711533
0.12936269
-0.016327558
0.13107639
-0.015929832
0.13278202
-0.01552081
0.13447831
-0.015102893
0.13616434
-0.014678485
0.13783956
-0.014249985
0.13950381
-0.01382009
0.14115732
-0.01339129
0.14280094
-0.012968282
0.1444357
-0.012551406
0.14606497
-0.012160397
0.14768882
-0.0117625
0.14932348
-0.01151198
0.15094684
-0.011013495
0.15266583
-0.01165329
-0.0098620264
0.11918896
-0.0043344689
0.11749635
-0.0060508555
0.11585683
-0.0073851347
0.1143543
-0.0084327712
0.11302499
-0.0095368129
0.11186642
-0.010653755
0.11088406
-0.011727613
0.11008418
-0.012749384
0.10946619
-0.013715798
0.10902551
-0.014622167
0.10875632
-0.015465354
0.10865195
-0.01624318
0.10870482
-0.016953941
0.10890661
-0.017596637
0.10924859
-0.018170937
0.10972183
-0.018676999
0.1103173
-0.019115394
0.11102599
-0.019487098
0.11183902
-0.019793474
0.11274771
-0.020036229
0.11374364
-0.020217388
0.11481875
-0.020339261
0.11596531
-0.020404423
0.11717605
-0.020415665
0.11844408
-0.02037597
0.11976303
-0.020288469
0.12112694
-0.02015641
0.12253037
-0.019983111
0.12396835
-0.01977193
0.12543639
-0.01952623
0.12693045
-0.019249345
0.12844696
-0.018944558
0.1299828
-0.018615075
0.13153528
-0.018264015
0.13310212
-0.017894399
0.13468145
-0.017509154
0.13627176
-0.017111124
0.13787196
-0.016703092
0.13948131
-0.016287835
0.14109946
-0.015868138
0.14272648
-0.01544711
0.14436283
-0.015027637
0.14600962
-0.014615074
0.14766816
-0.014209945
0.14934194
-0.013834177
0.15103169
-0.013452247
0.15275178
-0.013232075
0.15448602
-0.012747738
0.15631863
-0.013485895
-0.011643588
0.13689594
-0.0017554971
0.13437797
-0.0035328928
0.1318194
-0.0048265641
0.12946234
-0.006075703
0.12733398
-0.0074084542
0.1254157
-0.0087354803
0.12371034
-0.010022253
0.12222298
-0.011262025
0.12095208
-0.012444893
0.11989185
-0.013561942
0.1190348
-0.014608303
0.11837258
-0.015580956
0.11789619
-0.016477549
0.1175961
-0.017296549
0.11746245
-0.018037288
0.11748523
-0.018699775
0.11765441
-0.019284577
0.11796008
-0.019792771
0.11839251
-0.020225904
0.11894224
-0.02058596
0.11960015
-0.020875299
0.12035752
-0.021096629
0.12120606
-0.021252963
0.12213796
-0.021347568
0.12314593
-0.021383933
0.12422317
-0.021365715
0.12536346
-0.021296692
0.12656107
-0.021180728
0.12781087
-0.021021722
0.12910821
-0.020823571
0.130449
-0.020590135
0.13182965
-0.020325208
0.13324706
-0.020032493
0.13469863
-0.019715583
0.1361822
-0.019377962
0.13769604
-0.019022996
0.13923887
-0.018653959
0.14080982
-0.018274044
0.14240843
-0.017886444
0.14403465
-0.017494352
0.14568886
-0.01710132
0.14737187
-0.016710654
0.14908518
-0.016328377
0.15083047
-0.015955242
0.15261149
-0.015615196
0.15442973
-0.015270486
0.15629784
-0.015100185
0.15820563
-0.014655525
0.16021505
-0.015495314
-0.01365778
0.15005208
0.0007800044
0.14676313
-0.00024394687
0.14346579
-0.0015292253
0.14041801
-0.0030279237
0.13762312
-0.0046135601
0.13507485
-0.0061872155
0.13277505
-0.0077224527
0.1307238
-0.0092107748
0.12891866
-0.010639752
0.12735443
-0.01199771
0.12602328
-0.013277155
0.12491581
-0.014473486
0.12402185
-0.01558358
0.12333072
-0.016605421
0.12283145
-0.017538018
0.12251293
-0.018381252
0.12236408
-0.019135729
0.12237399
-0.019802683
0.122532
-0.02038392
0.1228278
-0.020881756
0.12325147
-0.021298965
0.12379356
-0.021638721
0.12444515
-0.021904551
0.12519786
-0.022100278
0.12604389
-0.022229968
0.12697605
-0.022297878
0.12798776
-0.022308401
0.12907305
-0.022266016
0.13022656
-0.022175236
0.13144355
-0.022040562
0.13271987
-0.021866449
0.13405193
-0.021657265
0.1354367
-0.021417268
0.1368717
-0.021150588
0.13835496
-0.020861218
0.13988498
-0.020553018
0.14146075
-0.020229729
0.14308172
-0.019895007
0.14474776
-0.019552491
0.14645923
-0.019205817
0.14821692
-0.018859015
0.1500221
-0.018515833
0.15187671
-0.018182988
0.15378294
-0.017861469
0.15574491
-0.017577166
0.15776481
-0.017290384
0.15985417
-0.017189541
0.16200723
-0.016808584
0.16426872
-0.017756811
-0.015969571
0.18890876
0.0053821071
-0.19351086
0.18509872
0.0035660917
0.18170668
0.0018628101
0.17856156
0.00011720293
0.175626
-0.0016779999
0.17287497
-0.0034361892
0.17029025
-0.0051377357
0.16786285
-0.0067833739
0.16558889
-0.0083657867
0.1634662
-0.0098750245
0.16149294
-0.011303889
0.15966698
-0.012647528
0.15798569
-0.013902288
0.15644577
-0.015065504
0.15504331
-0.016135556
0.15377383
-0.017111775
0.15263241
-0.017994311
0.15161376
-0.018784028
0.15071229
-0.019482452
0.14992223
-0.020091698
0.14923769
-0.020614419
0.1486527
-0.021053736
0.14816133
-0.021413183
0.1477577
-0.021696646
0.14743604
-0.021908303
0.14719072
-0.022052563
0.14701633
-0.022134004
0.14690763
-0.022157318
0.14685965
-0.022127257
0.14686766
-0.022048578
0.14692722
-0.021926001
0.14703412
-0.021764172
0.14718449
-0.021567631
0.14737469
-0.021340793
0.14760141
-0.021087937
0.1478616
-0.020813206
0.1481525
-0.02052063
0.14847164
-0.020214147
0.14881684
-0.019897692
0.14918622
-0.019575194
0.14957822
-0.019251013
0.14999159
-0.018929211
0.15042558
-0.018616979
0.15087966
-0.018315547
0.15135444
-0.018051948
0.15184978
-0.017785719
0.15237014
-0.017709906
0.15291124
-0.017349675
0.15349601
-0.018341588
-0.016562144
0.21685765
0.0087804398
-0.22025598
0.21338376
0.0070399808
0.21017095
0.0050756242
0.20706563
0.0032225179
0.20401903
0.0013685979
0.20106211
-0.00047926665
0.19821175
-0.0022873716
0.19547245
-0.0040440807
0.19285013
-0.0057434649
0.19035161
-0.0073765059
0.1879821
-0.0089343727
0.18574498
-0.010410412
0.18364226
-0.011799567
0.18167463
-0.013097878
0.17984157
-0.014302487
0.17814143
-0.01541164
0.17657168
-0.016424562
0.175129
-0.017341351
0.17380945
-0.018162895
0.17260855
-0.018890806
0.17152148
-0.019527346
0.1705431
-0.020075351
0.16966808
-0.020538162
0.16889099
-0.020919558
0.16820636
-0.021223678
0.16760876
-0.02145496
0.16709282
-0.021618064
0.16665332
-0.021717814
0.16628519
-0.021759127
0.16598357
-0.021746964
0.16574384
-0.021686271
0.16556161
-0.021581942
0.16543276
-0.021438777
0.16535343
-0.021261466
0.16532006
-0.021054566
0.16532936
-0.020822509
0.16537834
-0.020569611
0.16546431
-0.020300109
0.16558485
-0.020018235
0.16573789
-0.019728233
0.16592167
-0.019434791
0.16613479
-0.019142333
0.16637625
-0.018858437
0.16664554
-0.018584845
0.16694253
-0.018348931
0.16726843
-0.018111619
0.16762246
-0.018063941
0.16801294
-0.017740149
0.1684218
-0.01875045
-0.017035914
0.24376657
0.011504395
-0.24649053
0.24091613
0.0098904202
0.23806292
0.0079288362
0.23521596
0.0060694817
0.23233815
0.0042464026
0.22945033
0.0024085555
0.22658371
0.00057924793
0.22375759
-0.0012179605
0.22098789
-0.0029737616
0.21829054
-0.0046791554
0.2156794
-0.0063232335
0.21316547
-0.0078964834
0.21075736
-0.0093914601
0.20846163
-0.01080215
0.20628292
-0.012123772
0.2042241
-0.013352819
0.20228653
-0.01448699
0.20047024
-0.015525067
0.19877416
-0.016466816
0.19719626
-0.0173129
0.19573371
-0.018064798
0.19438307
-0.018724712
0.19314039
-0.019295484
0.19200135
-0.019780513
0.19096134
-0.020183668
0.19001559
-0.020509211
0.18915924
-0.020761714
0.1883874
-0.020945981
0.18769526
-0.021066982
0.18707807
-0.021129773
0.18653125
-0.021139452
0.1860504
-0.021101093
0.18563134
-0.021019714
0.18527011
-0.020900239
0.18496303
-0.020747485
0.18470667
-0.020566153
0.18449791
-0.020360844
0.18433389
-0.020136088
0.18421207
-0.019896421
0.18413025
-0.01964641
0.18408653
-0.019391072
0.18407943
-0.019135228
0.18410775
-0.018886758
0.18417108
-0.018648179
0.18426853
-0.018446375
0.18440279
-0.018245886
0.18456748
-0.018228632
0.18478449
-0.017957153
0.1849899
-0.01895586
-0.017368425
0.26927434
0.013537348
-0.2713073
0.2671063
0.012058466
0.26476454
0.010270598
0.26232531
0.0085087086
0.25979656
0.006775154
0.25718846
0.0050166519
0.25452714
0.0032405672
0.25183677
0.001472409
0.24913735
-0.00027433959
0.24644868
-0.0019904858
0.24379005
-0.0036646063
0.2411786
-0.0052850341
0.23862906
-0.0068419154
0.23615391
-0.0083269995
0.23376345
-0.0097333104
0.23146584
-0.011055207
0.22926726
-0.01228841
0.22717211
-0.013429916
0.22518318
-0.014477894
0.22330189
-0.015431602
0.22152838
-0.016291298
0.21986181
-0.017058142
0.21830043
-0.017734102
0.21684177
-0.018321855
0.2154828
-0.018824693
0.21422002
-0.019246429
0.21304961
-0.019591303
0.21196752
-0.019863894
0.21096957
-0.020069036
0.21005154
-0.020211734
0.20920919
-0.020297103
0.20843839
-0.020330297
0.20773514
-0.020316462
0.20709559
-0.020260694
0.20651612
-0.020168014
0.20599333
-0.02004336
0.20552407
-0.019891589
0.2051055
-0.01971751
0.20473503
-0.019525955
0.20441043
-0.019321814
0.20412979
-0.019110424
0.20389159
-0.018897029
0.20369457
-0.018689739
0.20353843
-0.018492039
0.20342169
-0.018329637
0.20334827
-0.01817246
0.20330697
-0.018187337
0.20333102
-0.017981206
0.20331522
-0.018940056
-0.017537498
0.29298512
0.01486849
-0.29431626
0.29150587
0.013537708
0.28978338
0.011993091
0.28788475
0.010407343
0.28584484
0.0088150653
0.28367446
0.0071870246
0.28139204
0.0055229899
0.27902081
0.0038436388
0.27658208
0.0021643947
0.274096
0.00049559099
0.27158278
-0.0011513877
0.26906214
-0.002764398
0.26655241
-0.0043321854
0.26407018
-0.0058447671
0.26163019
-0.007293315
0.25924519
-0.008670213
0.25692596
-0.0099691787
0.25468131
-0.011185265
0.25251822
-0.012314804
0.25044197
-0.013355349
0.24845627
-0.014305602
0.24656346
-0.015165333
0.24476464
-0.015935281
0.24305985
-0.016617062
0.24144822
-0.017213063
0.23992813
-0.017726342
0.23849736
-0.018160529
0.23715318
-0.01851972
0.23589253
-0.018808388
0.23471209
-0.019031288
0.23360836
-0.019193377
0.23257781
-0.019299741
0.23161687
-0.01935553
0.23072209
-0.019365911
0.22989011
-0.019336029
0.22911774
-0.01927099
0.22840201
-0.019175864
0.2277402
-0.019055701
0.22712985
-0.018915606
0.22656882
-0.018760777
0.22605525
-0.018596858
0.22558774
-0.018429522
0.22516505
-0.01826705
0.22478702
-0.01811401
0.22445182
-0.017994435
0.22416419
-0.017884833
0.22390931
-0.017932451
0.22372871