/*--------------------------------*- C++ -*----------------------------------*\
  =========                 |
  \\      /  F ield         | OpenFOAM: The Open Source CFD Toolbox
   \\    /   O peration     | Website:  https://openfoam.org
    \\  /    A nd           | Version:  6
     \\/     M anipulation  |
\*---------------------------------------------------------------------------*/
FoamFile
{
    version     2.0;
    format      ascii;
    class       volScalarField;
    location    "208";
    object      pPrime2Mean;
}
// * * * * * * * * * * * * * * * * * * * * * * * * * * * * * * * * * * * * * //

dimensions      [0 4 -4 0 0 0 0];

internalField   nonuniform List<scalar> 
9200
(
0.054061132
0.044814246
0.036985573
0.031888947
0.027820795
0.024391923
0.021433144
0.018858181
0.016609604
0.014641426
0.01291556
0.011400084
0.010068051
0.0088965698
0.0078661045
0.0069599496
0.0061639649
0.0054663558
0.0048583621
0.0043285786
0.04384337
0.036275365
0.029946514
0.025786572
0.022449059
0.01962775
0.017189726
0.015067185
0.01321446
0.011594746
0.010177309
0.008936156
0.0078491131
0.006897123
0.006063704
0.0053345643
0.0046973957
0.0041415917
0.0036572699
0.0032303445
0.034262607
0.028309376
0.023389041
0.020111137
0.017460153
0.015208277
0.013257338
0.011557405
0.01007438
0.0087803742
0.0076516425
0.0066676559
0.0058104895
0.005064373
0.0044153697
0.0038511645
0.0033609416
0.0029351533
0.0025642123
0.0022355412
0.025584628
0.021131008
0.017485462
0.01500974
0.012982304
0.011246667
0.0097369121
0.0084198818
0.0072724001
0.0062747811
0.0054094953
0.0046606959
0.0040139823
0.0034562718
0.0029757437
0.0025618198
0.002205139
0.0018974027
0.0016304205
0.0013946706
0.018048886
0.01493326
0.01239443
0.010619329
0.0091362015
0.0078507526
0.0067258929
0.0057435901
0.0048904185
0.0041537216
0.0035210537
0.0029802492
0.0025196352
0.0021282638
0.0017961185
0.0015142537
0.0012748388
0.0010710663
0.00089663753
0.00074516517
0.011866404
0.009884293
0.0082566515
0.0070623711
0.0060305843
0.0051185182
0.0043135687
0.0036105477
0.0030040555
0.0024868808
0.0020502958
0.0016847489
0.0013805542
0.0011284556
0.0009200215
0.00074786264
0.00060567966
0.00048818574
0.00039090025
0.00030988093
0.00721363
0.0061234199
0.0051917777
0.0044442081
0.0037598906
0.0031358199
0.002578662
0.0020931704
0.0016797874
0.0013349219
0.0010521541
0.00082356647
0.00064085467
0.00049611485
0.0003823125
0.0002934816
0.00022472201
0.00017209994
0.00013260202
0.0001039319
0.0042279483
0.0037583383
0.0032961982
0.0028509995
0.0024021631
0.0019740959
0.0015867807
0.001251534
0.00097219898
0.00074695561
0.00057040341
0.00043544571
0.00033467924
0.0002612571
0.00020931332
0.00017407561
0.00015178677
0.0001395725
0.0001354406
0.00013805339
0.0030038532
0.0028621129
0.0026390255
0.0023453755
0.0020150568
0.0016870369
0.001387834
0.0011315089
0.000922776
0.00075990956
0.00063751133
0.0005487256
0.00048669485
0.0004453461
0.00041968953
0.00040582018
0.00040077207
0.00040235976
0.00040914283
0.00042017883
0.0035888543
0.0034707169
0.0032578248
0.0029623202
0.0026319356
0.0023065383
0.0020117194
0.0017603295
0.0015556276
0.0013946639
0.0012713414
0.0011786518
0.0011099795
0.0010596941
0.0010232997
0.00099734203
0.00097922554
0.00096703998
0.00095943398
0.00095537774
0.12833693
0.10793467
0.089203688
0.077359707
0.067955646
0.060062431
0.053266866
0.047346036
0.042161936
0.037606106
0.033589935
0.030040066
0.026895051
0.024102945
0.021619519
0.019406886
0.017432444
0.015666994
0.01408312
0.012664967
0.12670251
0.10645559
0.087939181
0.076231293
0.06694508
0.059152515
0.052444057
0.046600459
0.041485302
0.036991169
0.033030289
0.029530013
0.026429503
0.023677349
0.021229791
0.019049376
0.017103928
0.015364676
0.013804049
0.012406739
0.12336873
0.10352723
0.085474463
0.074057805
0.065012868
0.057424334
0.05089148
0.04520193
0.040222846
0.035849397
0.031995865
0.028591271
0.025576182
0.022900381
0.020521144
0.018401932
0.01651144
0.014821752
0.013305386
0.011947317
0.11839388
0.099220746
0.081880755
0.07090672
0.062220102
0.054933209
0.048659784
0.04319716
0.038417869
0.034221113
0.03052439
0.027259331
0.024368666
0.021804006
0.019524185
0.01749401
0.015683395
0.014065656
0.012613863
0.011312819
0.11191381
0.093658342
0.077262159
0.066871149
0.058650323
0.051754466
0.045817385
0.040648634
0.036127705
0.032159131
0.028664686
0.025579477
0.022849105
0.020427586
0.018275793
0.016360255
0.014652363
0.013126953
0.011758415
0.010531174
0.10411317
0.087001879
0.071753684
0.062070058
0.054409524
0.04798307
0.042449744
0.037633518
0.033422224
0.029726864
0.026474426
0.02360426
0.021065467
0.018814994
0.016816179
0.015037611
0.013452354
0.012036907
0.010767838
0.0096296546
0.095216106
0.079445463
0.065515128
0.056642957
0.049621377
0.04372935
0.038655611
0.034240341
0.030380906
0.026995745
0.024017852
0.021391486
0.01906982
0.017013205
0.015187845
0.01356471
0.012118741
0.010828106
0.0096721919
0.0086365838
0.08547819
0.071208565
0.058725945
0.0507456
0.044423408
0.039115538
0.034543922
0.030566305
0.027090536
0.024043271
0.021364172
0.019002973
0.016917411
0.015071679
0.013435232
0.011981773
0.010688411
0.0095350859
0.0085043667
0.0075839161
0.075177131
0.062527839
0.051578758
0.0445443
0.038961912
0.034271277
0.030229843
0.026713757
0.023642068
0.020950261
0.018585185
0.016502511
0.014664952
0.013040915
0.011603454
0.010329357
0.0091983193
0.0081924444
0.0072979145
0.0065045286
0.064602737
0.053650515
0.044272502
0.038208696
0.033384927
0.029326996
0.025828675
0.022784785
0.020126021
0.01779709
0.015752366
0.013953743
0.012369148
0.010971426
0.0097374538
0.0086474283
0.007684297
0.0068336805
0.0060865698
0.0054331919
0.011168889
0.0096773841
0.0084127668
0.0073149058
0.0063770772
0.005573804
0.0048829813
0.0042856478
0.0037663892
0.0033126881
0.0029144082
0.0025634281
0.0022532282
0.0019785055
0.0017348868
0.0015187182
0.0013269048
0.0011567895
0.0010060639
0.00087270176
0.00075490828
0.00065108133
0.00055978123
0.0004797074
0.00040968017
0.00034862669
0.00029556984
0.00024961926
0.00020996429
0.00017586788
0.00014666155
0.00012174073
0.00010056064
8.2632262e-05
6.7518599e-05
5.483084e-05
4.4224858e-05
3.5397415e-05
2.8083066e-05
2.2049872e-05
1.7098394e-05
1.3052625e-05
9.7727913e-06
7.1127626e-06
5.0156554e-06
3.2876606e-06
2.0934769e-06
9.6189178e-07
1.2690943e-06
2.0924231e-06
0.010952147
0.009510155
0.0082817474
0.0072117045
0.0062967183
0.0055118833
0.0048353169
0.0042487751
0.0037376328
0.0032899997
0.0028962623
0.0025487303
0.0022412023
0.0019685933
0.0017266778
0.0015119023
0.0013212404
0.0011520833
0.0010021576
0.00086946402
0.00075222915
0.00064886833
0.00055795651
0.00047820543
0.0004084459
0.000347614
0.00029474017
0.00024894051
0.00020940979
0.00017541555
0.00014629312
0.00012144115
0.00010031753
8.2435421e-05
6.7359657e-05
5.4702922e-05
4.412232e-05
3.5315624e-05
2.8018217e-05
2.199885e-05
1.7058643e-05
1.3022061e-05
9.7497152e-06
7.0958246e-06
5.0037527e-06
3.2799347e-06
2.0894066e-06
9.5949071e-07
1.261463e-06
2.0518798e-06
0.010570698
0.0092178107
0.0080549493
0.0070359416
0.0061619879
0.0054096802
0.0047578219
0.0041895998
0.0036919539
0.0032542353
0.0028678144
0.002525775
0.0022224699
0.0019531846
0.0017139381
0.0015013403
0.0013124753
0.0011448105
0.00099612857
0.00086447247
0.00074810258
0.00064546182
0.00055514826
0.00047589322
0.0004065441
0.00034605111
0.00029345669
0.00024788712
0.00020854569
0.00017470711
0.00014571269
0.00012096601
9.9929035e-05
8.2118292e-05
6.7101345e-05
5.449312e-05
4.3952547e-05
3.5178892e-05
2.790876e-05
2.1911905e-05
1.6990277e-05
1.2969031e-05
9.7093625e-06
7.0659963e-06
4.9827102e-06
3.2662428e-06
2.0823039e-06
9.5527396e-07
1.2462167e-06
1.9726906e-06
0.010047954
0.0088183886
0.0077486322
0.0068033566
0.0059869358
0.0052788039
0.004659712
0.004115232
0.0036347328
0.0032094723
0.0028322176
0.002497067
0.002199073
0.001933979
0.0016981026
0.0014882527
0.0013016496
0.0011358573
0.00098872922
0.0008583635
0.00074306443
0.00064131095
0.00055173122
0.00047308194
0.00040423197
0.00034414969
0.00029189283
0.00024660054
0.00020748688
0.00017383549
0.00014499507
0.00012037527
9.944302e-05
8.1718883e-05
6.6773696e-05
5.4225043e-05
4.3733995e-05
3.5001562e-05
2.7765766e-05
2.1797522e-05
1.689974e-05
1.2898378e-05
9.6553182e-06
7.0258832e-06
4.9543434e-06
3.2478153e-06
2.0727731e-06
9.4976272e-07
1.2233519e-06
1.8589196e-06
0.0094069766
0.0083302769
0.0073795404
0.0065299827
0.0057856613
0.0051304559
0.004549434
0.0040319257
0.003570592
0.0031592038
0.0027922259
0.002464873
0.0021729357
0.0019126413
0.0016806247
0.0014739109
0.0012898729
0.0011261867
0.00098079097
0.00085185039
0.00073772283
0.00063693111
0.00054813966
0.00047013548
0.00040181284
0.00034216126
0.00029025612
0.00024525119
0.00020637261
0.00017291392
0.0001442319
0.00011974274
9.8918621e-05
8.1284345e-05
6.6414112e-05
5.3928195e-05
4.3489806e-05
3.4801672e-05
2.7603197e-05
2.1666424e-05
1.6795195e-05
1.2816244e-05
9.5921343e-06
6.9787899e-06
4.9209505e-06
3.2262038e-06
2.0615536e-06
9.4362345e-07
1.1930919e-06
1.7165334e-06
0.0086675097
0.0077702074
0.0069627909
0.0062288804
0.0055684751
0.0049718215
0.0044316342
0.0039427684
0.0035017888
0.0031052634
0.0027494619
0.0024306986
0.0021454719
0.0018904898
0.001662719
0.0014594193
0.0012781371
0.00111668
0.00097308873
0.00084560839
0.00073266143
0.000632823
0.00054480021
0.00046741508
0.00039959067
0.00034034013
0.00028875812
0.00024401412
0.00020534696
0.00017206039
0.00014351929
0.00011914629
9.8418627e-05
8.086503e-05
6.6062748e-05
5.3634419e-05
4.3245077e-05
3.4598876e-05
2.7436335e-05
2.1530396e-05
1.6685641e-05
1.2729421e-05
9.5248507e-06
6.928378e-06
4.8850661e-06
3.2031081e-06
2.0494195e-06
9.3756656e-07
1.1557979e-06
1.552774e-06
0.0078488446
0.0071549278
0.0065118552
0.00590795
0.005338759
0.0048035752
0.0043057846
0.0038471784
0.0034282597
0.0030481601
0.00270485
0.0023957152
0.0021179651
0.0018688219
0.0016456326
0.0014459381
0.001267497
0.0011082799
0.00096645383
0.00084036278
0.00072850718
0.00062952421
0.00054217052
0.00046530776
0.00039789077
0.00033895811
0.00028762471
0.00024307604
0.00020456345
0.00017140045
0.00014295943
0.0001186687
9.8009722e-05
8.0514385e-05
6.5762213e-05
5.3377491e-05
4.3026422e-05
3.4414003e-05
2.7281362e-05
2.1401903e-05
1.658058e-05
1.2645056e-05
9.458749e-06
6.8784572e-06
4.8492984e-06
3.1802546e-06
2.0371172e-06
9.3227608e-07
1.1119611e-06
1.3754781e-06
0.0069749926
0.0065035651
0.0060370698
0.0055660785
0.0050894218
0.0046183027
0.0041664059
0.0037419093
0.0033486742
0.0029879358
0.0026592539
0.0023612012
0.0020918542
0.0018490852
0.0016307345
0.0014347138
0.0012590597
0.0011019524
0.0009617182
0.0008368227
0.0007258596
0.00062753807
0.00054067054
0.00046416197
0.00039700082
0.0003382516
0.00028704922
0.00024259432
0.00020414962
0.00017103704
0.000142635
0.00011837604
9.7744489e-05
8.0274041e-05
6.5545297e-05
5.3183097e-05
4.2853841e-05
3.4262526e-05
2.715016e-05
2.1289991e-05
1.6486828e-05
1.2568222e-05
9.3975267e-06
6.8316615e-06
4.8153981e-06
3.1587791e-06
2.0250047e-06
9.2819879e-07
1.0621408e-06
1.1925171e-06
0.0060697133
0.005824436
0.0055276481
0.0051785325
0.0047935764
0.0043940668
0.0039975811
0.0036156374
0.0032548499
0.0029185702
0.0026081424
0.0023236477
0.0020643501
0.0018290184
0.0016161649
0.0014242019
0.0012515356
0.0010966193
0.00095798153
0.00083423874
0.00072409752
0.00062635224
0.0005398799
0.00046363457
0.00039664202
0.00033799511
0.00028685
0.00024242313
0.00020398876
0.00017087698
0.00014247179
0.00011820936
9.7576182e-05
8.010704e-05
6.5382874e-05
5.3028374e-05
4.2709486e-05
3.4130608e-05
2.7032099e-05
2.1186587e-05
1.6398344e-05
1.249448e-05
9.3379911e-06
6.7857581e-06
4.7818163e-06
3.1376742e-06
2.0122268e-06
9.2509643e-07
1.0071434e-06
1.0119676e-06
0.0051687352
0.0050967602
0.0049354331
0.0047006073
0.004417012
0.0041049292
0.0037792134
0.0034523474
0.0031336899
0.0028292542
0.0025426187
0.0022757568
0.0020294745
0.0018037297
0.0015979269
0.0014111419
0.0012422707
0.0010901261
0.00095350092
0.00083120653
0.00072209445
0.00062506745
0.00053908434
0.00046316114
0.00039637072
0.00033784168
0.00028675712
0.00024235358
0.00020392005
0.00017079711
0.00014237602
0.0001180977
9.7451489e-05
7.9973652e-05
6.5245625e-05
5.2891947e-05
4.2578005e-05
3.4007431e-05
2.6919744e-05
2.1086743e-05
1.6311981e-05
1.2421939e-05
9.2791114e-06
6.7402284e-06
4.7483499e-06
3.1167595e-06
1.9986649e-06
9.2273894e-07
9.4905326e-07
8.423036e-07
0.0041883143
0.0042170696
0.0041661976
0.0040407162
0.003864215
0.0036514788
0.0034126694
0.003158903
0.0029004393
0.0026448315
0.0023973048
0.0021614764
0.0019396747
0.0017331718
0.001542462
0.0013675063
0.001207908
0.001063038
0.00093212604
0.00081432384
0.000708748
0.00061450766
0.00053072246
0.00045653413
0.00039111398
0.00033366792
0.00028343986
0.00023971425
0.00020181786
0.00016912106
0.00014103858
0.00011702982
9.6598648e-05
7.9292754e-05
6.4702523e-05
5.2459525e-05
4.223466e-05
3.3735903e-05
2.6706183e-05
2.0920035e-05
1.6183128e-05
1.2323831e-05
9.205683e-06
6.687525e-06
4.7110815e-06
3.0952802e-06
1.9828754e-06
9.2142275e-07
8.8868229e-07
6.9297846e-07
0.0032462859
0.0033302641
0.003348313
0.0033007104
0.0032063808
0.0030761309
0.0029159412
0.0027343517
0.0025405277
0.0023416939
0.0021432467
0.0019493458
0.0017630603
0.0015864595
0.0014208145
0.001266805
0.0011246747
0.00099435076
0.00087553743
0.00076778777
0.0006705553
0.00058323112
0.00050517061
0.00043571262
0.00037419346
0.00031995728
0.00027236398
0.00023079532
0.00019465975
0.00016339615
0.00013647662
0.00011340854
9.3735786e-05
7.7039333e-05
6.293717e-05
5.1083685e-05
4.1168572e-05
3.291525e-05
2.6079255e-05
2.0445475e-05
1.5827817e-05
1.2061787e-05
9.01555e-06
6.5543542e-06
4.6189424e-06
3.0403484e-06
1.943624e-06
9.1244546e-07
8.1180412e-07
5.5107468e-07
0.0024362017
0.0025563298
0.0026225746
0.002634902
0.0026050052
0.0025407672
0.0024458394
0.0023262815
0.0021896269
0.0020423235
0.0018894964
0.0017353918
0.0015834306
0.001436181
0.0012954687
0.0011625306
0.0010381389
0.00092270223
0.00081635175
0.00071901237
0.00063045774
0.00055035245
0.00047828435
0.00041378937
0.00035637061
0.00030551326
0.00026069642
0.00022140251
0.00018712486
0.00015737384
0.00013168167
0.00010960611
9.0733177e-05
7.4678977e-05
6.1090673e-05
4.9646808e-05
4.0056994e-05
3.2061021e-05
2.5427799e-05
1.99532e-05
1.5459856e-05
1.1790857e-05
8.819185e-06
6.4170519e-06
4.5236269e-06
2.9839574e-06
1.9013563e-06
9.0464197e-07
7.283173e-07
4.1790069e-07
0.0017553883
0.0018941357
0.0019900124
0.0020439731
0.0020613396
0.0020473441
0.0020043648
0.0019363442
0.0018488647
0.0017472327
0.0016359669
0.0015190293
0.0013998321
0.0012811417
0.0011651017
0.0010533234
0.0009469726
0.00084684307
0.00075342705
0.0006669778
0.00058756188
0.00051510156
0.00044940919
0.00039021499
0.0003371894
0.00028996119
0.00024813229
0.00021128992
0.00017901659
0.00015089831
0.00012653124
0.00010552708
8.7517091e-05
7.2155243e-05
5.9120237e-05
4.8116775e-05
3.8876076e-05
3.1155711e-05
2.4739125e-05
1.9434124e-05
1.5072829e-05
1.1506537e-05
8.6135046e-06
6.2733652e-06
4.4237397e-06
2.9246376e-06
1.8557763e-06
8.9661932e-07
6.4424063e-07
3.0395758e-07
0.0012078546
0.0013472662
0.0014556444
0.0015337634
0.0015822134
0.0016036471
0.0015994697
0.0015719757
0.0015248395
0.0014620217
0.001387201
0.0013037889
0.0012148962
0.001123214
0.0010309709
0.00093996226
0.0008515952
0.00076693325
0.00068674414
0.00061154816
0.0005416621
0.00047723738
0.00041829271
0.00036474193
0.00031641735
0.00027308951
0.00023448367
0.00020029388
0.00017019465
0.00014385094
0.00012092629
0.0001010896
8.4020558e-05
6.9413827e-05
5.6982195e-05
4.6458755e-05
3.7598252e-05
3.0177672e-05
2.399637e-05
1.8875217e-05
1.4656766e-05
1.1201258e-05
8.3928577e-06
6.1190521e-06
4.3162973e-06
2.8600034e-06
1.8057386e-06
8.8686357e-07
5.6300508e-07
2.1474655e-07
0.0007885088
0.0009142092
0.0010206873
0.001107667
0.0011727266
0.0012162422
0.0012385984
0.0012407927
0.0012248633
0.0011934104
0.0011491425
0.0010947532
0.001032849
0.00096582863
0.00089580208
0.00082456971
0.00075362891
0.00068418963
0.0006171985
0.00055336904
0.00049321326
0.00043707182
0.0003851417
0.00033750121
0.0002941322
0.00025493946
0.00021976772
0.00018841635
0.00016065213
0.00013622022
0.00011485348
9.6280335e-05
8.0231224e-05
6.6443872e-05
5.4667364e-05
4.4665204e-05
3.6217472e-05
2.9122144e-05
2.319584e-05
1.8273637e-05
1.4209486e-05
1.0873327e-05
8.1559348e-06
5.953008e-06
4.2004937e-06
2.7891349e-06
1.7510505e-06
8.7428687e-07
4.8742028e-07
1.5216211e-07
0.00048375151
0.00058694185
0.00068113786
0.00076497672
0.00083457184
0.00088865847
0.00092662692
0.00094842914
0.00095480286
0.00094712428
0.00092711774
0.0008966873
0.00085781679
0.00081246158
0.00076245374
0.00070944644
0.00065488911
0.00060001822
0.0005458593
0.00049323844
0.00044279941
0.00039502328
0.00035024863
0.00030869144
0.00027046394
0.00023559207
0.00020403134
0.00017568126
0.00015039807
0.00012800613
0.00010830776
9.1091822e-05
7.6140958e-05
6.3237596e-05
5.2168848e-05
4.2730337e-05
3.4729082e-05
2.7985508e-05
2.2334799e-05
1.7627356e-05
1.3729507e-05
1.0521643e-05
7.9019156e-06
5.7745383e-06
4.0758562e-06
2.7113918e-06
1.6918254e-06
8.5790677e-07
4.1962773e-07
1.1467167e-07
0.00027600902
0.00035297376
0.00042872601
0.00050122144
0.00056625644
0.00062166174
0.00066606111
0.00069861383
0.00071909575
0.00072788576
0.00072581245
0.0007140074
0.00069380078
0.00066662503
0.00063392588
0.00059709395
0.00055741739
0.00051605288
0.00047401008
0.00043214654
0.00039117051
0.00035164902
0.00031401915
0.00027860116
0.0002456124
0.00021518123
0.00018736057
0.00016214072
0.00013946125
0.00011922194
0.00010129259
8.5521781e-05
7.1744472e-05
5.9788508e-05
4.9480073e-05
4.0648128e-05
3.3127905e-05
2.6763526e-05
2.1409907e-05
1.6933823e-05
1.3214924e-05
1.01448e-05
7.6297828e-06
5.5828618e-06
3.9418977e-06
2.6262367e-06
1.6283061e-06
8.3695633e-07
3.6084016e-07
9.768528e-08
0.00014688555
0.00019760227
0.00025236266
0.00030889674
0.00036336956
0.00041332978
0.00045698457
0.00049299042
0.00052048312
0.00053911051
0.00054896982
0.00055050972
0.00054444437
0.00053167486
0.0005132125
0.00049011197
0.00046341793
0.00043412341
0.00040314106
0.00037128552
0.00033926405
0.00030767384
0.00027700404
0.00024764147
0.00021987858
0.00019392278
0.00016990652
0.00014789762
0.00012790938
0.0001099103
9.3833266e-05
7.9583857e-05
6.7047921e-05
5.6098208e-05
4.66001e-05
3.8416425e-05
3.1411406e-05
2.5453753e-05
2.0419051e-05
1.619134e-05
1.2664452e-05
9.7418732e-06
7.3389069e-06
5.3775582e-06
3.7984402e-06
2.5335157e-06
1.5609802e-06
8.1113903e-07
3.1142316e-07
9.4710093e-08
7.9009448e-05
0.00010580384
0.00013971402
0.00017858268
0.0002192619
0.0002594405
0.00029725217
0.00033114254
0.00035989982
0.00038270716
0.00039913457
0.00040908965
0.00041276166
0.00041056586
0.00040308568
0.00039101559
0.00037511035
0.0003561422
0.00033486561
0.00031199095
0.00028816651
0.00026396703
0.00023988778
0.00021634286
0.00019366709
0.00017212025
0.00015189299
0.00013311396
0.00011585739
0.00010015099
8.5983783e-05
7.331356e-05
6.2073883e-05
5.2180476e-05
4.3536912e-05
3.6039547e-05
2.95817e-05
2.405708e-05
1.9362511e-05
1.5399943e-05
1.2078081e-05
9.3129011e-06
7.0294068e-06
5.1588336e-06
3.6458027e-06
2.4335933e-06
1.4905973e-06
7.8071186e-07
2.7109435e-07
9.8930821e-08
5.7103239e-05
6.3544283e-05
7.8485753e-05
0.0001000739
0.0001259293
0.0001541091
0.00018292521
0.00021085534
0.00023658474
0.00025907008
0.00027756237
0.00029159474
0.000300957
0.00030566445
0.00030592112
0.00030207853
0.00029459404
0.00028399243
0.00027083184
0.00025567469
0.00023906449
0.00022150878
0.00020346696
0.00018534277
0.00016748043
0.00015016393
0.00013361867
0.0001180149
0.00010347242
9.006611e-05
7.7831905e-05
6.6772905e-05
5.6865417e-05
4.8064685e-05
4.0310207e-05
3.3530499e-05
2.7647282e-05
2.2579032e-05
1.8243915e-05
1.4562086e-05
1.1457557e-05
8.8592173e-06
6.7023721e-06
4.9276612e-06
3.4848864e-06
2.3273906e-06
1.4181414e-06
7.4646081e-07
2.3915377e-07
1.0469556e-07
6.841e-05
5.8491567e-05
5.727748e-05
6.3285106e-05
7.4851919e-05
9.0484265e-05
0.00010881057
0.0001285042
0.00014832811
0.00016720282
0.00018424457
0.00019877644
0.00021032659
0.00021861898
0.00022355643
0.00022519663
0.00022372379
0.00021941896
0.00021263132
0.00020375155
0.00019318824
0.00018134814
0.00016862062
0.00015536593
0.00014190707
0.00012852476
0.00011545514
0.00010288961
9.0976468e-05
7.9823778e-05
6.9503216e-05
6.005445e-05
5.1489835e-05
4.3799161e-05
3.6954261e-05
3.0913339e-05
2.5624901e-05
2.1031225e-05
1.7071332e-05
1.368343e-05
1.0806925e-05
8.3838046e-06
6.3600767e-06
4.6858855e-06
3.3172062e-06
2.2163343e-06
1.344745e-06
7.0954023e-07
2.146178e-07
1.0841261e-07
0.00010268081
8.0286872e-05
6.6059359e-05
5.8873226e-05
5.7667341e-05
6.1384571e-05
6.9012432e-05
7.9502001e-05
9.1805256e-05
0.0001049393
0.00011802862
0.00013032734
0.00014123219
0.00015028904
0.00015719207
0.00016177517
0.00016399728
0.00016392385
0.00016170616
0.00015756034
0.00015174697
0.00014455224
0.00013627159
0.00012719614
0.00011760186
0.00010774157
9.7839421e-05
8.8087693e-05
7.8645481e-05
6.9639004e-05
6.1163137e-05
5.3283887e-05
4.6041489e-05
3.9453898e-05
3.3520423e-05
2.8225351e-05
2.3541387e-05
1.9432834e-05
1.5858412e-05
1.2773689e-05
1.0133132e-05
7.8916953e-06
6.0062223e-06
4.436338e-06
3.144924e-06
2.1022943e-06
1.2716237e-06
6.7128724e-07
1.9629738e-07
1.0865381e-07
0.00015193034
0.00012053373
9.6363123e-05
7.8596844e-05
6.6639251e-05
5.9807553e-05
5.7427201e-05
5.8743648e-05
6.2947141e-05
6.9227424e-05
7.6812608e-05
8.4993638e-05
9.3143481e-05
0.00010073263
0.00010733889
0.00011265047
0.00011646291
0.00011867124
0.00011925852
0.00011828201
0.00011585819
0.00011214741
0.00010733936
0.00010163972
9.5258664e-05
8.840135e-05
8.1260404e-05
7.4010416e-05
6.6804306e-05
5.9771309e-05
5.3016374e-05
4.6620696e-05
4.0643139e-05
3.512229e-05
3.0078945e-05
2.5518807e-05
2.143524e-05
1.7811951e-05
1.4625489e-05
1.1847495e-05
9.4466673e-06
7.3904134e-06
5.6462174e-06
4.1829763e-06
2.9708913e-06
1.9875172e-06
1.2000275e-06
6.3303424e-07
1.8284765e-07
1.0559224e-07
0.00021009233
0.00017262317
0.00014127581
0.00011546593
9.4932857e-05
7.9287586e-05
6.8138771e-05
6.1000285e-05
5.730315e-05
5.6438318e-05
5.7788131e-05
6.0747534e-05
6.4743239e-05
6.9252047e-05
7.3815855e-05
7.8051786e-05
8.1657342e-05
8.4411089e-05
8.6169473e-05
8.6860425e-05
8.6474556e-05
8.5054814e-05
8.2685417e-05
7.9480751e-05
7.5574881e-05
7.1112087e-05
6.6238688e-05
6.1096343e-05
5.5816845e-05
5.0518392e-05
4.5303203e-05
4.0256317e-05
3.5445414e-05
3.0921424e-05
2.6719764e-05
2.2861992e-05
1.935772e-05
1.6206637e-05
1.3400526e-05
1.0925188e-05
8.7621897e-06
6.8904442e-06
5.2875026e-06
3.9310805e-06
2.7987533e-06
1.8746318e-06
1.1312722e-06
5.9601435e-07
1.7289778e-07
1.0018486e-07
0.00027265969
0.00023148352
0.00019531408
0.00016374303
0.0001367332
0.00011410963
9.5698178e-05
8.1233534e-05
7.0360715e-05
6.266638e-05
5.770178e-05
5.4998198e-05
5.4082486e-05
5.4493909e-05
5.5799926e-05
5.7609116e-05
5.9580797e-05
6.1431285e-05
6.2936879e-05
6.3933704e-05
6.4314819e-05
6.4025085e-05
6.3054449e-05
6.1430221e-05
5.9208929e-05
5.646825e-05
5.3299449e-05
4.9800582e-05
4.6070702e-05
4.2205139e-05
3.8291914e-05
3.4409205e-05
3.0623813e-05
2.6990464e-05
2.355184e-05
2.0339159e-05
1.7373172e-05
1.4665428e-05
1.2219684e-05
1.0033372e-05
8.0990237e-06
6.4056429e-06
4.9398629e-06
3.6874688e-06
2.6330859e-06
1.7667067e-06
1.0668247e-06
5.6134958e-07
1.6524749e-07
9.3499351e-08
0.00033635631
0.0002933134
0.00025423924
0.00021885156
0.00018724934
0.00015940279
0.00013529156
0.00011481734
9.779834e-05
8.3991081e-05
7.310563e-05
6.4814959e-05
5.8765478e-05
5.4590114e-05
5.1921959e-05
5.0406795e-05
4.9713933e-05
4.9545066e-05
4.9640892e-05
4.9785277e-05
4.9806981e-05
4.9579134e-05
4.901677e-05
4.8072844e-05
4.6733145e-05
4.5010557e-05
4.2939073e-05
4.0567929e-05
3.7956122e-05
3.5167548e-05
3.2266874e-05
2.9316226e-05
2.6372693e-05
2.3486615e-05
2.0700572e-05
1.8048984e-05
1.5558206e-05
1.3246999e-05
1.1127282e-05
9.205046e-06
7.4813668e-06
5.9534608e-06
4.6156374e-06
3.4606716e-06
2.4795357e-06
1.6673551e-06
1.008434e-06
5.3012282e-07
1.5908338e-07
8.6384279e-08
0.00039885794
0.0003553305
0.00031485405
0.00027723502
0.00024264484
0.00021114452
0.00018281364
0.00015767054
0.0001356628
0.00011668198
0.00010057281
8.7137429e-05
7.6141047e-05
6.7320635e-05
6.0395062e-05
5.5075296e-05
5.1074194e-05
4.8115539e-05
4.5941951e-05
4.4321282e-05
4.3051254e-05
4.1962272e-05
4.0918446e-05
3.9817005e-05
3.8586329e-05
3.7182899e-05
3.558749e-05
3.3800919e-05
3.1839664e-05
2.9731582e-05
2.751195e-05
2.5219959e-05
2.2895779e-05
2.0578198e-05
1.830288e-05
1.6101172e-05
1.3999418e-05
1.2018695e-05
1.0174899e-05
8.4790918e-06
6.9380292e-06
5.5548423e-06
4.3297072e-06
3.260968e-06
2.3448809e-06
1.5808106e-06
9.5823765e-07
5.0347073e-07
1.5409831e-07
7.942011e-08
0.00045856482
0.000415552
0.00037480708
0.000336199
0.00029992793
0.00026610579
0.00023487017
0.00020631384
0.00018047368
0.00015734049
0.000136864
0.00011895341
0.00010347917
9.0277704e-05
7.9157796e-05
6.9907755e-05
6.2302925e-05
5.6113315e-05
5.1111054e-05
4.7077202e-05
4.3807612e-05
4.1117597e-05
3.8845279e-05
3.6853573e-05
3.5030857e-05
3.3290466e-05
3.1569174e-05
2.9824907e-05
2.8033916e-05
2.6187649e-05
2.4289541e-05
2.2351885e-05
2.0392962e-05
1.84345e-05
1.6499551e-05
1.46108e-05
1.2789302e-05
1.1053629e-05
9.419363e-06
7.8989081e-06
6.5015353e-06
5.2336525e-06
4.0991471e-06
3.1001936e-06
2.2369439e-06
1.5119236e-06
9.1880122e-07
4.8265603e-07
1.5047031e-07
7.2986577e-08
0.00051442113
0.00047261092
0.00043241788
0.00039375577
0.00035682566
0.00032176287
0.00028873256
0.00025786939
0.00022926638
0.00020298158
0.00017904037
0.00015743377
0.00013811756
0.00012101393
0.00010601469
9.2985439e-05
8.1770444e-05
7.2198143e-05
6.4087082e-05
5.7251883e-05
5.1508966e-05
4.6681725e-05
4.2604965e-05
3.9128409e-05
3.6119213e-05
3.3463439e-05
3.1066559e-05
2.8853074e-05
2.676539e-05
2.4762134e-05
2.2816073e-05
2.0911814e-05
1.9043447e-05
1.7212257e-05
1.5424615e-05
1.369012e-05
1.2020039e-05
1.0426061e-05
8.9193652e-06
7.5099811e-06
6.2064097e-06
5.0154964e-06
3.9424354e-06
2.9912344e-06
2.1642891e-06
1.4660129e-06
8.9304555e-07
4.6907582e-07
1.4871807e-07
6.732568e-08
0.00056577362
0.00052560646
0.00048652691
0.00044848209
0.0004116576
0.00037619435
0.00034226453
0.00031002122
0.00027958831
0.00025106498
0.00022452662
0.00020002192
0.00017757059
0.00015716286
0.00013876037
0.00012229789
0.00010768579
9.4813376e-05
8.3552833e-05
7.3763732e-05
6.5297711e-05
5.8003165e-05
5.172971e-05
4.6332212e-05
4.1674229e-05
3.7630736e-05
3.4090072e-05
3.0955119e-05
2.8143714e-05
2.5588419e-05
2.3235716e-05
2.1044782e-05
1.8985973e-05
1.703913e-05
1.5191839e-05
1.3437748e-05
1.1774996e-05
1.0204842e-05
8.7304948e-06
7.3561879e-06
6.0864779e-06
4.9257884e-06
3.8781078e-06
2.9471236e-06
2.1356425e-06
1.4485297e-06
8.8404264e-07
4.641904e-07
1.4951225e-07
6.2576718e-08
0.00061226013
0.00057398283
0.00053636957
0.00049939367
0.00046321682
0.00042797496
0.00039383441
0.000360951
0.00032946139
0.00029948625
0.00027113038
0.00024447957
0.00021959759
0.00019652457
0.00017527639
0.00015584463
0.00013819717
0.00012227965
0.00010801756
9.5319021e-05
8.40781e-05
7.417837e-05
6.5496712e-05
5.790705e-05
5.1283917e-05
4.5505661e-05
4.0457188e-05
3.6032136e-05
3.2134467e-05
2.8679434e-05
2.5593982e-05
2.2816637e-05
2.0296962e-05
1.7994685e-05
1.5878589e-05
1.3925273e-05
1.2117865e-05
1.044477e-05
8.8984991e-06
7.4746442e-06
6.1710079e-06
4.9869287e-06
3.9227458e-06
2.9796552e-06
2.1589757e-06
1.4644932e-06
8.9466837e-07
4.6936718e-07
1.5350234e-07
5.8800698e-08
0.00065372316
0.00061743288
0.00058147297
0.00054583867
0.00051066447
0.00047607575
0.00044222576
0.00040926343
0.00037732624
0.00034654253
0.00031703126
0.00028889905
0.00026223716
0.00023711938
0.00021360052
0.00019171533
0.00017147792
0.00015288166
0.00013589986
0.00012048702
0.00010658063
9.4103501e-05
8.2966488e-05
7.3071422e-05
6.4314221e-05
5.6587938e-05
4.9785667e-05
4.380316e-05
3.8541079e-05
3.3906793e-05
2.9815719e-05
2.619217e-05
2.2969761e-05
2.009141e-05
1.7508993e-05
1.5182743e-05
1.3080448e-05
1.1176556e-05
9.4512185e-06
7.8893664e-06
6.479843e-06
5.2146564e-06
4.0883192e-06
3.0975142e-06
2.2402433e-06
1.5176888e-06
9.2711559e-07
4.8564536e-07
1.6118024e-07
5.6003028e-08
0.00069013587
0.00065581487
0.00062156515
0.0005874013
0.00055343054
0.00051976545
0.00048654295
0.00045389992
0.00042196744
0.00039087255
0.00036073785
0.00033167903
0.00030380206
0.00027720105
0.00025195645
0.00022813342
0.00020578046
0.00018492851
0.00016559048
0.0001477613
0.00013141851
0.00011652337
0.00010302241
9.0849372e-05
7.9927518e-05
7.0172097e-05
6.1492936e-05
5.3796989e-05
4.6990775e-05
4.0982578e-05
3.5684353e-05
3.1013272e-05
2.6892904e-05
2.3253998e-05
2.0034909e-05
1.71817e-05
1.4647964e-05
1.2394423e-05
1.0388382e-05
8.6030764e-06
7.0169843e-06
5.6131576e-06
4.3785684e-06
3.3036928e-06
2.3816172e-06
1.6095301e-06
9.8221379e-07
5.1339603e-07
1.7274969e-07
5.4147745e-08
0.00072155268
0.00068909552
0.00065651113
0.00062383234
0.00059114063
0.00055853561
0.00052613733
0.00049406849
0.00046245013
0.00043140283
0.00040104626
0.00037149725
0.00034286742
0.00031526125
0.00028877419
0.00026349095
0.00023948382
0.0002168112
0.00019551652
0.00017562746
0.00015715561
0.00014009658
0.00012443049
0.00011012299
9.7126552e-05
8.5382266e-05
7.4821735e-05
6.5369252e-05
5.6944017e-05
4.9462352e-05
4.2839808e-05
3.6993094e-05
3.1841755e-05
2.7309564e-05
2.3325608e-05
1.9825047e-05
1.6749576e-05
1.4047615e-05
1.1674261e-05
9.591054e-06
7.7656054e-06
6.1711519e-06
4.7860346e-06
3.5933298e-06
2.5799858e-06
1.7380865e-06
1.0588558e-06
5.5204554e-07
1.8805165e-07
5.3167443e-08
0.00074803597
0.00071726811
0.00068622334
0.00065495207
0.00062351255
0.00059199258
0.00056049637
0.00052913252
0.00049801083
0.000467243
0.00043694225
0.00040722188
0.00037819332
0.00034996452
0.00032263822
0.00029631034
0.00027106815
0.00024698874
0.00022413747
0.00020256681
0.00018231532
0.00016340705
0.00014585124