/*--------------------------------*- C++ -*----------------------------------*\
  =========                 |
  \\      /  F ield         | OpenFOAM: The Open Source CFD Toolbox
   \\    /   O peration     | Website:  https://openfoam.org
    \\  /    A nd           | Version:  6
     \\/     M anipulation  |
\*---------------------------------------------------------------------------*/
FoamFile
{
    version     2.0;
    format      ascii;
    class       volVectorField;
    location    "208";
    object      U;
}
// * * * * * * * * * * * * * * * * * * * * * * * * * * * * * * * * * * * * * //

dimensions      [0 1 -1 0 0 0 0];

internalField   nonuniform List<vector> 
9200
(
(0.0010393463 0.0014199822 -5.9201843e-20)
(0.013676068 -0.002058367 4.6042533e-20)
(0.038313168 -0.0058665685 -3.8501737e-20)
(0.07227444 -0.0097635059 -6.025775e-20)
(0.11376475 -0.01349003 1.8826965e-20)
(0.16158089 -0.016605659 3.274388e-20)
(0.21467149 -0.018817286 -1.2268009e-20)
(0.27206609 -0.019973892 9.2688621e-21)
(0.33285623 -0.020011224 1.6803427e-20)
(0.39616349 -0.018929053 1.4848073e-21)
(0.46111557 -0.016779817 -2.1456338e-20)
(0.52683688 -0.013657732 2.0670005e-20)
(0.5924507 -0.009687998 -4.0422149e-20)
(0.65709133 -0.0050157753 -2.1133902e-20)
(0.71992473 0.00020556378 5.9046526e-21)
(0.78017504 0.0058240986 -2.5131674e-20)
(0.83717061 0.011712817 2.5217119e-20)
(0.89046878 0.017918518 2.224319e-20)
(0.93967073 0.024573419 -2.9930486e-22)
(0.98205188 0.028293389 -1.6692039e-21)
(0.0052521806 -0.0013462731 -1.7059353e-20)
(0.026962502 -0.0089890265 3.974771e-20)
(0.061670118 -0.014809764 2.3576296e-20)
(0.10629489 -0.019172269 -1.1569758e-19)
(0.15873566 -0.022213996 -1.2727088e-20)
(0.21753352 -0.023720684 7.329708e-20)
(0.28137296 -0.023595094 -3.5476401e-20)
(0.34900602 -0.021868962 -8.3905571e-21)
(0.41923921 -0.018645521 3.4287542e-20)
(0.49090945 -0.014080837 -4.3259581e-20)
(0.56287233 -0.0083759463 -3.0338483e-20)
(0.63400848 -0.0017665893 7.1921438e-20)
(0.70324331 0.0054884002 3.8294051e-20)
(0.76957583 0.013118638 -6.7976558e-20)
(0.83211247 0.020852089 1.4623689e-20)
(0.89010039 0.028419711 -3.6733396e-20)
(0.94296918 0.035569679 -1.3777195e-20)
(0.99043232 0.042140891 7.0974739e-20)
(1.0323561 0.047715313 2.964191e-20)
(1.0669348 0.049139693 -8.3478184e-20)
(0.010858427 -0.0040424159 3.6773457e-20)
(0.043953415 -0.015431077 2.5047366e-21)
(0.090515438 -0.022552282 2.2341711e-20)
(0.1471114 -0.026497358 9.8116824e-22)
(0.21134255 -0.027886297 -4.0773937e-20)
(0.28146768 -0.026795114 1.8576403e-20)
(0.35587041 -0.023382727 1.34203e-20)
(0.43299008 -0.017921536 -5.0327705e-20)
(0.51132478 -0.010735649 5.7261861e-20)
(0.58942614 -0.002183879 1.4256689e-20)
(0.66590917 0.0073479067 -5.4300713e-20)
(0.73948037 0.017460264 -1.8237404e-20)
(0.80897599 0.027756563 9.059162e-21)
(0.87340265 0.037859271 2.3444738e-20)
(0.93197363 0.047424042 -1.1362505e-20)
(0.98413369 0.05614897 2.7877724e-20)
(1.029574 0.063789169 -2.0188234e-20)
(1.0682645 0.070204386 -7.0123564e-20)
(1.1003322 0.07511937 -2.3796285e-20)
(1.1249112 0.076641229 4.8659717e-20)
(0.017957215 -0.0064221634 2.4508015e-20)
(0.064776997 -0.0206948 5.1039224e-20)
(0.12485229 -0.028060847 1.9881694e-20)
(0.19446966 -0.030464066 1.2990096e-20)
(0.27094932 -0.029094841 1.7275703e-20)
(0.3522488 -0.024388978 -4.7720173e-20)
(0.43643139 -0.016825972 -2.5646857e-20)
(0.52162009 -0.0069766701 0)
(0.60602896 0.0045670321 1.3920618e-20)
(0.68798708 0.017211731 -5.8523399e-21)
(0.76597519 0.030373921 -9.7934951e-20)
(0.83867448 0.043499631 -1.5774819e-20)
(0.90501527 0.056086614 6.5103202e-20)
(0.96421571 0.067704132 4.844276e-22)
(1.0158035 0.078007711 -1.5725567e-21)
(1.0596155 0.086746788 2.1957494e-20)
(1.0957773 0.093772222 -5.2647218e-21)
(1.12468 0.099065327 -6.1029735e-20)
(1.1468647 0.10259707 -4.5851278e-20)
(1.1622957 0.10341385 6.9520586e-20)
(0.026579421 -0.0082056882 -3.9194202e-21)
(0.089344022 -0.024033506 -5.1256313e-21)
(0.16430754 -0.030264988 5.6599409e-20)
(0.2475812 -0.029810019 1.8539325e-20)
(0.33624161 -0.024513027 -3.1955068e-20)
(0.42795126 -0.015239859 1.2163839e-20)
(0.52047263 -0.0028513624 2.6402863e-21)
(0.61166359 0.011737095 3.3609171e-20)
(0.69954713 0.027640142 5.6599507e-21)
(0.78236839 0.044028769 -1.3204741e-20)
(0.85865407 0.060147723 6.015404e-20)
(0.92726912 0.075340469 -5.800936e-20)
(0.98745677 0.089072859 -1.3216614e-19)
(1.0388531 0.10094902 -5.577304e-21)
(1.0814725 0.11071708 8.3150781e-20)
(1.1156655 0.11826405 0)
(1.1420548 0.12360582 1.0118957e-20)
(1.1614669 0.12689055 -1.5459776e-20)
(1.1748179 0.1282987 -8.5994757e-21)
(1.1826673 0.12744915 2.0992261e-20)
(0.03666691 -0.0090895798 -5.4309122e-21)
(0.11731511 -0.024685357 4.3578746e-21)
(0.20811869 -0.028140178 -8.762984e-21)
(0.30515703 -0.023414954 2.8472394e-20)
(0.4053354 -0.013075591 -2.9392665e-20)
(0.50607148 0.0015226158 -1.6927024e-20)
(0.60490491 0.019095141 3.7364232e-20)
(0.69954961 0.038365255 4.7595452e-21)
(0.78800394 0.058167646 -2.4436059e-20)
(0.86863407 0.077483004 6.9867561e-20)
(0.94023975 0.095458642 5.2393884e-22)
(1.0020956 0.11143156 -8.0444319e-20)
(1.0539569 0.1249429 0)
(1.0960273 0.1357375 3.9542118e-20)
(1.1288922 0.14374843 5.5236001e-21)
(1.1534278 0.14906893 -7.7566407e-20)
(1.1706991 0.15191913 -1.9586923e-20)
(1.1818623 0.15262368 -1.2467634e-20)
(1.1880592 0.15152606 -1.4709394e-20)
(1.190146 0.14858492 4.0420564e-20)
(0.04805887 -0.0087674053 -1.7277958e-20)
(0.14808311 -0.021931993 -2.2198289e-21)
(0.2551407 -0.020797834 3.0380503e-20)
(0.36546385 -0.010412793 3.7484308e-20)
(0.47590422 0.0059015888 -1.9944733e-20)
(0.58374267 0.026269307 -6.9163032e-20)
(0.68644187 0.04897721 -2.7995798e-20)
(0.78176205 0.072417789 7.8929212e-20)
(0.86790197 0.095212478 8.5778141e-21)
(0.94358918 0.11624961 -2.4873483e-20)
(1.0081258 0.13469827 1.3642213e-20)
(1.061387 0.15001555 -4.3194491e-21)
(1.1037693 0.16193659 0)
(1.1360975 0.17044428 2.7203484e-20)
(1.1595046 0.17572309 -7.9322417e-20)
(1.1753021 0.17810369 -3.147553e-20)
(1.184857 0.17800813 8.1054579e-20)
(1.1894921 0.17590945 -4.2969875e-21)
(1.1904029 0.17225558 3.5561054e-21)
(1.188508 0.16719298 2.7111576e-20)
(0.060485252 -0.0069573641 -3.2414615e-20)
(0.18077773 -0.015170381 -8.1624321e-20)
(0.3038893 -0.0075835268 2.5797738e-21)
(0.42642557 0.0097033567 7.0161811e-20)
(0.5453515 0.032631554 6.2424376e-20)
(0.65798102 0.058820044 -7.1574521e-20)
(0.76190884 0.086176508 -2.8275067e-22)
(0.85518293 0.11285231 8.5522549e-20)
(0.93645348 0.13737837 4.882807e-20)
(1.0050415 0.1586937 -5.4218409e-20)
(1.0609356 0.17613563 -9.2334218e-20)
(1.1047243 0.18941354 -3.1589827e-21)
(1.1374759 0.19855944 4.2127867e-20)
(1.1605874 0.20385857 -6.6056275e-21)
(1.1756247 0.20577019 -1.2868786e-20)
(1.1841776 0.20484919 1.9690806e-20)
(1.1877427 0.20167897 4.3880617e-20)
(1.1876453 0.19682588 -4.3859426e-20)
(1.1849954 0.19077884 -1.0232199e-19)
(1.180625 0.1837738 2.456687e-20)
(0.073537217 -0.0034329736 -3.4979751e-20)
(0.21422688 -0.0039890257 -1.7388612e-19)
(0.35251658 0.011839376 8.2103244e-20)
(0.48562799 0.037018337 9.2767517e-20)
(0.61085381 0.066835552 5.7970567e-20)
(0.72576728 0.098481178 8.6107096e-21)
(0.82834804 0.12959696 -1.0624009e-19)
(0.91718999 0.15824269 0)
(0.99162745 0.18302814 -6.874859e-20)
(1.0517521 0.20311206 -1.520241e-20)
(1.0983384 0.2181486 5.4703467e-20)
(1.1327008 0.22821082 1.097338e-20)
(1.156511 0.2336926 -4.5613854e-20)
(1.1716068 0.23519947 -4.9081362e-20)
(1.1798204 0.23344335 2.428768e-20)
(1.182845 0.22915323 4.4822891e-20)
(1.1821489 0.22300986 -5.5600407e-20)
(1.178936 0.21560822 -1.0751121e-19)
(1.1741468 0.20742224 -3.1513631e-21)
(1.1684567 0.19871881 2.7046396e-20)
(0.086650448 0.001961386 -3.5448997e-21)
(0.24696019 0.011816634 8.7913243e-20)
(0.3988474 0.03749231 -1.6479243e-20)
(0.54040466 0.071218382 -8.4309151e-20)
(0.66949904 0.10778893 4.5164371e-20)
(0.78421954 0.14411543 4.9175453e-20)
(0.88318941 0.17775668 5.5356782e-21)
(0.96577871 0.2068849 -9.950249e-20)
(1.0321763 0.23038802 -2.504878e-21)
(1.0833328 0.24781553 5.0503544e-20)
(1.120807 0.25926301 5.9854758e-21)
(1.1465558 0.2652362 -1.9717208e-20)
(1.1627107 0.26650533 -7.5704629e-20)
(1.1713765 0.26396622 -6.255402e-21)
(1.1744762 0.25852429 4.3533354e-20)
(1.1736548 0.25101088 3.7022012e-20)
(1.1702383 0.24213395 1.9793441e-20)
(1.1652402 0.23245875 -5.2994842e-20)
(1.1594014 0.22240418 1.2957451e-20)
(1.1532252 0.21223799 8.2659095e-20)
(-0.0012932615 0.0014346598 -1.1234446e-21)
(-0.0047459604 0.0031874149 2.0646968e-21)
(-0.010771359 0.0041359042 8.795005e-22)
(-0.017754287 0.004539536 -2.4411019e-21)
(-0.024740318 0.0045654166 -1.4114827e-21)
(-0.031299593 0.0043260386 1.5460015e-21)
(-0.037161327 0.0039035381 -6.8700813e-21)
(-0.042147442 0.0033577217 -5.9573047e-21)
(-0.046157776 0.0027313812 1.1171998e-20)
(-0.04914619 0.0020548305 -9.7427494e-21)
(-0.051100654 0.0013493003 -1.9833049e-22)
(-0.052030443 0.00062942183 3.6673441e-21)
(-0.051957737 -9.4889589e-05 -6.3295605e-22)
(-0.050911881 -0.00081693052 2.2818746e-20)
(-0.048925778 -0.0015318449 3.0401133e-22)
(-0.046035342 -0.0022351741 -4.0882875e-20)
(-0.042281798 -0.0029222682 7.538562e-21)
(-0.037703443 -0.0035910387 2.3864113e-20)
(-0.032308695 -0.0042399867 -4.3852379e-20)
(-0.026156965 -0.0048211133 -2.7739208e-20)
(-0.0016521999 0.0041808664 -5.371603e-21)
(-0.0053974812 0.0092681383 1.0865439e-20)
(-0.011218509 0.012007444 -1.0191543e-20)
(-0.017658026 0.013153764 3.9229748e-21)
(-0.023856433 0.013195413 4.8121446e-21)
(-0.029433317 0.012462724 7.1324192e-22)
(-0.03415232 0.011197014 -2.2509492e-20)
(-0.037860378 0.0095738968 -2.0370241e-21)
(-0.040474298 0.0077189872 2.0163541e-20)
(-0.041958921 0.0057212303 -5.0473604e-21)
(-0.04230895 0.0036428644 -2.1762591e-20)
(-0.041537337 0.0015267126 4.8973173e-21)
(-0.039667713 -0.00059830552 2.2635423e-20)
(-0.036729082 -0.002712761 1.0308391e-20)
(-0.032752034 -0.0048026892 2.1854286e-20)
(-0.027769172 -0.0068555085 -1.977073e-20)
(-0.021824797 -0.0088582197 -2.1672945e-20)
(-0.014966273 -0.010804225 2.1184618e-20)
(-0.0071290209 -0.012679001 2.6810367e-20)
(0.0018742908 -0.014317223 1.5854767e-20)
(-0.0023034292 0.0065602328 -4.3568691e-21)
(-0.0065392239 0.014480196 -5.6387544e-21)
(-0.011892131 0.018710543 3.0723932e-22)
(-0.017211099 0.02042818 1.0959873e-21)
(-0.021819142 0.020400323 6.6918407e-21)
(-0.025431041 0.019151666 1.0665169e-20)
(-0.027877231 0.017066287 -3.7227641e-21)
(-0.029053269 0.014423783 -1.8896166e-20)
(-0.028909036 0.011424352 6.5413176e-21)
(-0.02743105 0.0082099049 1.2862571e-20)
(-0.024627714 0.0048797758 5.8340852e-21)
(-0.020520109 0.0015022384 1.8159107e-20)
(-0.015135987 -0.0018768635 1.7295916e-21)
(-0.0085054006 -0.005227248 -3.3864531e-20)
(-0.00065689543 -0.0085276102 1.202017e-21)
(0.0083810135 -0.011759109 -2.2139212e-20)
(0.018556862 -0.014904096 -2.4466304e-20)
(0.029802175 -0.017953752 4.5819713e-20)
(0.042304956 -0.020855116 2.5349348e-20)
(0.056738562 -0.023247765 1.223927e-22)
(-0.0031290276 0.0083689701 -5.2833073e-21)
(-0.0078963989 0.018336513 -8.4815279e-21)
(-0.012438986 0.023587809 4.3593048e-21)
(-0.016026535 0.025609658 4.1463454e-21)
(-0.018235024 0.025382745 2.0105708e-21)
(-0.018912651 0.023589321 7.3209964e-21)
(-0.017984717 0.020730273 9.3124788e-21)
(-0.01541671 0.017170377 -1.3511358e-21)
(-0.011207048 0.013171314 -1.1481948e-20)
(-0.0053752352 0.0089189313 -2.907188e-20)
(0.0020481087 0.004543437 6.1892186e-23)
(0.011026504 0.00013431077 4.0697824e-20)
(0.021522219 -0.0042489512 -1.8383173e-20)
(0.033497843 -0.0085675851 -1.2296089e-20)
(0.046920502 -0.012795546 5.5348969e-22)
(0.061760083 -0.016911855 3.2302645e-20)
(0.077952999 -0.020901669 -1.4829544e-20)
(0.095392248 -0.024763375 -5.3339187e-20)
(0.11439843 -0.028379717 4.576501e-20)
(0.13634536 -0.031073094 3.3013168e-20)
(-0.0039704097 0.0094657324 -6.8788987e-22)
(-0.009091658 0.020487792 -1.253474e-20)
(-0.012364471 0.026159087 -3.4144536e-20)
(-0.01355254 0.028143338 -5.7241627e-21)
(-0.01253324 0.027555007 -3.6222737e-21)
(-0.0093167248 0.025188064 6.3051042e-21)
(-0.0039456455 0.021627411 -4.6461968e-21)
(0.003526127 0.017298959 -8.8070285e-21)
(0.013036819 0.012508752 2.1899712e-20)
(0.02452124 0.0074744426 5.0567081e-21)
(0.037915536 0.0023489039 -2.5290295e-20)
(0.053157442 -0.0027627842 1.1078279e-20)
(0.070186863 -0.0077908747 0)
(0.088946576 -0.012691303 1.2089576e-20)
(0.10938543 -0.017436919 -9.7016182e-21)
(0.13145741 -0.022009897 -1.433712e-20)
(0.15507406 -0.026408646 -1.5738967e-21)
(0.18006759 -0.030659421 -2.2181547e-21)
(0.20685341 -0.034576534 4.6147064e-20)
(0.23766358 -0.037019868 -1.0470124e-20)
(-0.0046450979 0.0097808625 -7.535668e-21)
(-0.0096772509 0.02074788 2.4516401e-20)
(-0.01106438 0.026160977 -1.0499347e-20)
(-0.0090968328 0.027724445 -2.7469282e-20)
(-0.0039797211 0.026601695 -2.7548147e-20)
(0.0040961823 0.023648408 -1.492157e-20)
(0.014954149 0.019496457 -6.9059642e-22)
(0.028436234 0.014604705 5.5499791e-21)
(0.044403146 0.0093034466 1.9615881e-20)
(0.062730495 0.0038284155 7.353086e-21)
(0.083304314 -0.0016547551 -7.1862218e-21)
(0.10601897 -0.0070322386 -2.0102314e-21)
(0.13077357 -0.012229098 -3.8191713e-20)
(0.15746943 -0.017199753 -1.2693646e-20)
(0.18601199 -0.021919734 1.8750607e-20)
(0.21631177 -0.026379718 -2.1021675e-20)
(0.24823223 -0.030602223 -8.973059e-21)
(0.28151867 -0.034670608 3.044047e-20)
(0.31660704 -0.038364819 5.0472069e-20)
(0.35665015 -0.0399641 3.3559661e-21)
(-0.0049617685 0.0093139988 1.6783304e-20)
(-0.0091662694 0.01909771 1.4467939e-20)
(-0.007859365 0.023563366 5.1145488e-20)
(-0.0018585397 0.024328944 2.3387982e-20)
(0.0082957227 0.022523783 1.8251775e-22)
(0.02222194 0.019014385 -3.9388457e-20)
(0.039597441 0.014440936 -2.4313861e-20)
(0.060147903 0.0092663596 1.0465818e-20)
(0.083639114 0.0038232283 1.4401587e-20)
(0.10986669 -0.0016512991 -1.3113712e-20)
(0.13864563 -0.0069910095 -4.4038718e-20)
(0.1698017 -0.012082847 2.9618501e-20)
(0.20316404 -0.016854159 2.0020554e-20)
(0.23855945 -0.021263995 -2.7551159e-20)
(0.2758123 -0.025296402 1.1650136e-20)
(0.31474811 -0.028957167 2.4197616e-20)
(0.35514546 -0.032303052 8.0723952e-21)
(0.39663387 -0.035506676 -1.1764211e-20)
(0.43957701 -0.038392641 -1.4190299e-20)
(0.4879851 -0.038634401 5.8727614e-21)
(-0.0047307763 0.0081236734 1.1093845e-20)
(-0.0070586006 0.015671176 -2.3352719e-20)
(-0.0020293661 0.018562033 8.6200552e-21)
(0.00903252 0.018216225 3.3587967e-20)
(0.025256361 0.01565115 5.2124341e-20)
(0.046066338 0.011695603 2.0276511e-20)
(0.070984523 0.0069609526 -5.8639359e-21)
(0.099601948 0.0018829516 -1.2286284e-20)
(0.13156894 -0.0032271978 -6.2057473e-21)
(0.16657567 -0.008149657 3.4240837e-20)
(0.20433425 -0.01273332 -4.510439e-21)
(0.24456484 -0.016879186 -1.6643302e-20)
(0.28698469 -0.020528685 -1.9693574e-20)
(0.33129998 -0.02365641 -4.7443743e-20)
(0.37720458 -0.02626553 2.3238705e-20)
(0.4243877 -0.028387858 -1.4095985e-20)
(0.47249973 -0.030127616 2.5993401e-20)
(0.52103618 -0.031783184 2.1040826e-20)
(0.57021395 -0.033350672 -8.5570394e-20)
(0.62470916 -0.032058832 -1.0807142e-22)
(-0.0037710521 0.0063146396 2.1925055e-20)
(-0.0028657665 0.010735096 -2.616553e-20)
(0.0071421046 0.011564137 -4.5013296e-20)
(0.024450233 0.0099249902 -2.7253782e-20)
(0.047870851 0.0066523065 -2.0439869e-21)
(0.076628703 0.0024906178 1.3050095e-20)
(0.11007673 -0.0020153945 -2.8337696e-21)
(0.14765206 -0.0064879031 1.8118538e-20)
(0.18886096 -0.010663502 8.8685619e-21)
(0.23325195 -0.014362419 -1.1380173e-20)
(0.28039149 -0.017468947 8.8779142e-21)
(0.32984603 -0.019916803 -2.3903269e-20)
(0.3811688 -0.021678694 8.0504794e-21)
(0.43389084 -0.02275987 1.6756392e-20)
(0.48751935 -0.023194295 -2.6395145e-21)
(0.54154716 -0.023046885 1.661899e-21)
(0.59543546 -0.022469437 -3.1957814e-22)
(0.64851783 -0.021870095 1.9590424e-20)
(0.7008224 -0.021445052 4.0434004e-21)
(0.75745151 -0.01849907 -5.7334864e-22)
(-0.0019110145 0.0040273483 2.3692112e-20)
(0.0038694298 0.0046765207 5.7159959e-20)
(0.02031531 0.0031879651 -4.9244225e-20)
(0.045178284 0.00029442705 -9.9454147e-21)
(0.076965152 -0.0034241507 2.0256345e-20)
(0.11469623 -0.0073535846 2.1433718e-21)
(0.15753883 -0.011054955 -2.9815162e-20)
(0.20474831 -0.014244137 6.9848105e-21)
(0.2556495 -0.016737926 7.1097882e-21)
(0.30960473 -0.018426954 -2.6254079e-20)
(0.36598648 -0.019260094 1.2927328e-21)
(0.42415958 -0.019231863 -3.7174115e-20)
(0.48347102 -0.018372197 -3.6341017e-20)
(0.54324565 -0.01673827 6.5683481e-20)
(0.60278813 -0.014407295 5.5627483e-21)
(0.66138885 -0.01147589 -1.5188793e-20)
(0.71830785 -0.0081020368 1.9363969e-20)
(0.77269902 -0.0045928566 -9.1888151e-22)
(0.82408836 -0.00096803817 2.0364579e-20)
(0.87621968 0.0043280798 -1.9554155e-20)
(-0.018836422 -0.0050997025 5.8352044e-20)
(-0.010224662 -0.0056349256 1.5783665e-20)
(-0.00022120396 -0.0060688783 -3.5139551e-20)
(0.010823214 -0.0063341076 1.6790229e-20)
(0.022642451 -0.0065120448 0)
(0.035177866 -0.0066300875 0)
(0.048369639 -0.0066909707 -2.2974944e-20)
(0.062138051 -0.0067025368 -1.650287e-20)
(0.076412689 -0.0066741711 1.9122587e-20)
(0.091134045 -0.0066126623 1.8174029e-20)
(0.10624715 -0.0065232022 1.0524256e-21)
(0.12170019 -0.0064103544 -1.0317634e-20)
(0.13744487 -0.0062780774 8.326875e-21)
(0.15343597 -0.0061297186 1.8233711e-20)
(0.16963073 -0.0059681412 -5.2274138e-21)
(0.1859885 -0.0057958306 -1.0174932e-20)
(0.20247053 -0.0056149581 -4.3195861e-21)
(0.21903979 -0.0054274325 -4.4257377e-21)
(0.23566085 -0.005234946 7.3667177e-22)
(0.25229985 -0.0050390088 1.2286035e-21)
(0.26892444 -0.0048409762 2.5666299e-21)
(0.28550385 -0.0046420676 6.6539438e-21)
(0.30200889 -0.0044433825 2.4894451e-22)
(0.31841201 -0.0042459102 -3.4514688e-21)
(0.33468738 -0.0040505383 1.5558768e-22)
(0.35081092 -0.0038580583 -5.7709761e-22)
(0.36676038 -0.0036691702 1.2434358e-21)
(0.38251535 -0.0034844864 1.0522434e-21)
(0.39805732 -0.0033045354 -1.2987924e-21)
(0.41336965 -0.0031297654 -1.2218742e-22)
(0.42843762 -0.0029605481 3.5750288e-23)
(0.44324838 -0.0027971838 -3.5187567e-22)
(0.45779092 -0.0026399055 -4.0565375e-22)
(0.47205607 -0.0024888845 5.5412807e-23)
(0.4860364 -0.0023442359 -1.3809024e-22)
(0.49972622 -0.0022060254 -2.234315e-22)
(0.51312152 -0.002074275 2.5571903e-22)
(0.52621995 -0.0019489704 2.9501947e-22)
(0.5390207 -0.00183007 -8.271094e-24)
(0.5515249 -0.0017175081 -1.5517368e-22)
(0.56373449 -0.001611224 3.0406616e-23)
(0.57565609 -0.0015111171 -4.014473e-23)
(0.58728985 -0.0014172586 9.2203567e-23)
(0.5986648 -0.0013293121 2.1977183e-23)
(0.6097353 -0.0012485611 -1.1394536e-22)
(0.62069335 -0.0011717962 -6.7613075e-24)
(0.63106136 -0.0011112476 -7.2390801e-26)
(0.64234991 -0.0010339512 -3.5612016e-24)
(0.65042787 -0.001050809 2.9453708e-23)
(0.66700881 -0.00087556353 3.6050758e-22)
(0.010445869 -0.01501761 -1.2746815e-20)
(0.018179698 -0.016641012 -6.3302327e-20)
(0.027779217 -0.017915414 -3.0541938e-20)
(0.038385147 -0.018672072 3.8476009e-20)
(0.049620989 -0.019183589 1.4662611e-20)
(0.061506631 -0.019529433 -1.8204925e-20)
(0.074012823 -0.019709866 4.6721969e-21)
(0.087062672 -0.019746493 2.5447189e-20)
(0.10059314 -0.019667281 9.1995107e-23)
(0.11455401 -0.019491701 -7.6591236e-21)
(0.12889717 -0.01923436 -1.3021017e-20)
(0.14357601 -0.018908312 -8.5245284e-21)
(0.15854664 -0.018524973 1.7772332e-20)
(0.17376754 -0.018094001 8.929542e-21)
(0.18919898 -0.017623679 -1.6522436e-20)
(0.20480275 -0.017121231 -6.0390574e-21)
(0.22054213 -0.016592996 3.2145044e-21)
(0.23638174 -0.01604457 8.3716314e-21)
(0.25228752 -0.015480931 6.9832261e-21)
(0.26822672 -0.014906541 -6.9727149e-21)
(0.28416792 -0.014325413 -3.1685457e-21)
(0.30008109 -0.013741174 1.3605337e-21)
(0.31593764 -0.013157098 3.8682799e-22)
(0.33171052 -0.012576141 1.2113951e-21)
(0.34737427 -0.012000958 1.8368356e-22)
(0.3629051 -0.011433924 -3.2661622e-22)
(0.37828095 -0.010877141 -7.2434853e-22)
(0.39348151 -0.010332453 9.7156564e-22)
(0.40848832 -0.0098014551 8.2482931e-22)
(0.42328471 -0.0092855019 -1.5147347e-22)
(0.43785587 -0.0087857224 5.5306062e-22)
(0.45218878 -0.0083030313 -2.3880912e-22)
(0.46627224 -0.0078381429 -3.7069883e-22)
(0.48009682 -0.0073915877 -6.0999079e-22)
(0.49365478 -0.0069637287 4.417173e-22)
(0.5069401 -0.0065547797 -1.5477165e-23)
(0.51994838 -0.0061648255 1.6124734e-22)
(0.53267687 -0.005793841 -4.417477e-22)
(0.54512433 -0.0054417196 3.7189529e-22)
(0.55729141 -0.0051082828 6.7175272e-23)
(0.56917962 -0.004793366 -1.0285401e-22)
(0.58079503 -0.0044966852 1.7613726e-22)
(0.59213739 -0.0042184693 2.3339706e-22)
(0.60323496 -0.0039577287 1.6926535e-22)
(0.61404229 -0.0037183088 1.6767271e-22)
(0.6247485 -0.0034906541 -2.6098129e-23)
(0.63488239 -0.003311214 8.4044779e-23)
(0.64593159 -0.0030818723 7.6292695e-23)
(0.65383002 -0.0031323617 -1.9466626e-22)
(0.67009198 -0.0026124464 -3.8026431e-23)
(0.067614685 -0.024029145 9.4528295e-21)
(0.073589667 -0.026749048 3.2950998e-21)
(0.082265503 -0.028805567 -1.2162201e-20)
(0.091947816 -0.029968503 -1.2257887e-21)
(0.1019832 -0.030767863 1.4970586e-20)
(0.11254633 -0.03133089 -1.4887123e-20)
(0.12367596 -0.031636069 -2.9842265e-20)
(0.13529681 -0.031713004 1.4493519e-20)
(0.14735695 -0.031607634 1.8181963e-20)
(0.15982342 -0.031350054 -1.1598514e-20)
(0.17266059 -0.030961818 1.0190551e-21)
(0.18583081 -0.030462751 8.6860159e-21)
(0.19929783 -0.029870549 -1.5253537e-20)
(0.21302656 -0.029200237 2.9095139e-21)
(0.22698243 -0.028464758 7.5194341e-21)
(0.2411314 -0.027675502 3.1598243e-23)
(0.25544015 -0.026842556 2.6556424e-22)
(0.26987606 -0.025974894 -7.4150842e-21)
(0.28440732 -0.025080562 3.8616818e-21)
(0.299003 -0.024166817 8.4749032e-21)
(0.31363315 -0.023240232 -3.8351754e-21)
(0.32826893 -0.022306772 -2.2130362e-21)
(0.34288273 -0.021371854 1.0124437e-21)
(0.35744822 -0.020440385 -1.7155322e-21)
(0.37194052 -0.019516792 1.3532252e-21)
(0.38633622 -0.018605045 7.1845909e-22)
(0.40061353 -0.017708674 1.5268388e-21)
(0.41475227 -0.016830783 -1.9526616e-21)
(0.42873395 -0.015974068 2.2235679e-21)
(0.44254181 -0.015140832 5.5188529e-22)
(0.45616078 -0.014333004 4.032257e-22)
(0.46957754 -0.013552159 3.2134466e-22)
(0.48278046 -0.012799539 8.7324999e-22)
(0.49575958 -0.012076084 -1.3708605e-21)
(0.5085066 -0.011382455 3.7065565e-22)
(0.52101484 -0.010719066 1.0941296e-22)
(0.53327918 -0.010086115 -4.5172294e-23)
(0.5452961 -0.0094836193 8.6732675e-23)
(0.55706356 -0.0089114582 -3.7184977e-22)
(0.56858135 -0.0083693915 1.8293513e-22)
(0.57985009 -0.0078572004 -3.4987144e-23)
(0.59087492 -0.0073744663 3.9004283e-22)
(0.60165476 -0.0069216187 -1.8544483e-22)
(0.61221651 -0.0064970691 4.7323549e-23)
(0.62251501 -0.0061072061 4.3603791e-23)
(0.63273402 -0.0057363422 -7.359985e-23)
(0.64241444 -0.0054444179 -1.2082598e-22)
(0.65299998 -0.0050705124 3.8809475e-22)
(0.66055003 -0.0051542591 1.7270658e-22)
(0.67619372 -0.0043070281 -8.303992e-22)
(0.15021528 -0.031460428 1.5010133e-21)
(0.15354689 -0.035257393 -1.1566609e-20)
(0.16061622 -0.038010919 6.6442e-21)
(0.1688059 -0.039479097 -1.3324745e-20)
(0.17698224 -0.040520688 -1.9758312e-21)
(0.18552346 -0.041302278 9.1599379e-21)
(0.19458419 -0.041757235 -9.7662193e-21)
(0.20408692 -0.041913708 1.5662735e-21)
(0.21398768 -0.041833328 1.2903798e-20)
(0.22427599 -0.041554333 3.4031973e-21)
(0.23493254 -0.041102043 -6.2096953e-21)
(0.24593021 -0.040500447 -2.8638081e-21)
(0.25724159 -0.039771747 -5.8409041e-21)
(0.26883912 -0.038935054 -6.4553127e-21)
(0.28069423 -0.038006974 3.2356915e-21)
(0.29277763 -0.037002301 8.4621093e-22)
(0.30505975 -0.035934324 1.3679575e-21)
(0.31751099 -0.034815021 -3.3850413e-21)
(0.33010196 -0.033655248 -4.2428851e-21)
(0.34280363 -0.032464895 2.3616505e-21)
(0.35558758 -0.031252996 3.2251351e-21)
(0.36842614 -0.030027815 -1.5636193e-21)
(0.38129261 -0.028796902 1.5867265e-21)
(0.39416135 -0.027567132 -3.9123987e-22)
(0.40700793 -0.026344744 -3.9196402e-21)
(0.41980926 -0.025135353 -3.0332812e-21)
(0.43254365 -0.023943977 -1.9026286e-22)
(0.44519092 -0.02277505 4.2858924e-22)
(0.4577324 -0.021632442 -2.2106032e-21)
(0.47015103 -0.020519479 -8.5497171e-22)
(0.48243132 -0.019438967 2.2837653e-22)
(0.4945594 -0.018393223 -1.2498684e-21)
(0.506523 -0.0173841 6.2629711e-24)
(0.5183114 -0.016413029 -4.2420885e-22)
(0.52991547 -0.015481051 -4.7193613e-22)
(0.5413276 -0.014588863 -5.1995711e-22)
(0.55254168 -0.01373686 -8.4133147e-22)
(0.56355313 -0.012925183 -5.4496258e-23)
(0.57435878 -0.012153778 -3.9160453e-24)
(0.58495727 -0.011422423 -5.1972383e-22)
(0.59534803 -0.01073092 -9.1606999e-23)
(0.60553491 -0.010078794 -3.3239436e-22)
(0.61551574 -0.009466736 -4.3760056e-22)
(0.6253155 -0.008892649 3.7841853e-22)
(0.63488958 -0.0083654174 1.4821028e-23)
(0.64441405 -0.0078635955 1.8237684e-22)
(0.65344732 -0.0074693554 -1.324682e-22)
(0.66336995 -0.0069629679 -2.6691265e-22)
(0.67042203 -0.0070791701 -4.4690889e-23)
(0.685179 -0.0059327074 4.6229618e-22)
(0.25468564 -0.036552753 -2.0900307e-20)
(0.25447018 -0.041393504 4.7585958e-20)
(0.2590733 -0.044745651 1.0348103e-20)
(0.2650841 -0.046442036 -1.5765322e-20)
(0.2707093 -0.047714308 -2.0227948e-21)
(0.27651991 -0.048747768 2.6232179e-21)
(0.28283546 -0.04941371 -1.6608246e-21)
(0.28957686 -0.049728091 -4.6861416e-21)
(0.29669653 -0.049761422 -4.0159173e-21)
(0.30420542 -0.049557044 -1.2207639e-20)
(0.31210213 -0.049141679 1.7897749e-20)
(0.32036932 -0.048540793 6.521989e-21)
(0.32898694 -0.047778956 -1.6780519e-20)
(0.33793397 -0.04687801 1.031757e-20)
(0.34718701 -0.045857292 8.3849911e-21)
(0.35672068 -0.044734305 -8.7923815e-22)
(0.36650838 -0.043525059 -3.1222233e-21)
(0.37652282 -0.04224424 -3.8197307e-21)
(0.38673634 -0.040905352 -1.3892576e-21)
(0.39712123 -0.039520845 -1.2304189e-21)
(0.40765002 -0.038102214 -3.0257599e-21)
(0.41829572 -0.036660062 0)
(0.42903206 -0.035204148 -1.3451909e-21)
(0.43983366 -0.033743416 3.9309503e-21)
(0.45067617 -0.032286021 5.4052655e-21)
(0.46153642 -0.030839348 -9.4112546e-22)
(0.47239251 -0.029410022 -2.927443e-21)
(0.48322392 -0.028003929 3.0258376e-21)
(0.49401152 -0.026626238 2.5447461e-22)
(0.50473766 -0.025281421 3.4352444e-21)
(0.51538617 -0.023973284 -5.3459736e-22)
(0.5259424 -0.022705002 1.7173463e-21)
(0.53639318 -0.021479157 -7.9964347e-22)
(0.54672683 -0.020297785 2.9094124e-22)
(0.55693314 -0.019162423 -4.3403925e-22)
(0.56700338 -0.018074159 5.623162e-22)
(0.57693021 -0.017033694 4.570986e-22)
(0.5867078 -0.016041396 3.8255581e-22)
(0.59633167 -0.015097384 -9.5936181e-22)
(0.60579908 -0.01420155 6.8355425e-22)
(0.61510808 -0.013353819 -3.6957364e-22)
(0.62426102 -0.012553748 -1.1033192e-21)
(0.63325446 -0.011802369 1.407818e-21)
(0.64211113 -0.011097189 -6.2005847e-23)
(0.6507872 -0.010449513 -1.5816011e-22)
(0.65944917 -0.0098326395 -7.8244778e-24)
(0.6676777 -0.0093492564 -1.2621655e-22)
(0.67677356 -0.0087262173 -4.6582626e-22)
(0.68320543 -0.0088736585 8.7882804e-22)
(0.69685092 -0.0074649182 -4.4315752e-23)
(0.37635127 -0.03836816 -1.7495098e-20)
(0.37170975 -0.044270222 1.2832052e-20)
(0.37286688 -0.048161605 2.9754539e-21)
(0.37591043 -0.050098842 -7.6353714e-21)
(0.37830524 -0.051669962 1.2055974e-20)
(0.38072291 -0.053042363 7.7914076e-21)
(0.38367598 -0.05403003 -1.2647691e-20)
(0.38710055 -0.054633093 -6.0679792e-21)
(0.3909292 -0.054917994 1.2697344e-20)
(0.3951824 -0.054927123 -1.5304968e-20)
(0.39987422 -0.054687503 -1.4063185e-20)
(0.40499503 -0.054224641 1.4129637e-20)
(0.41052858 -0.053563648 6.8193825e-21)
(0.41645714 -0.052727937 -4.2037652e-21)
(0.42276011 -0.051739004 -1.8545628e-21)
(0.429414 -0.050616737 -4.0581724e-21)
(0.43639344 -0.049379689 5.3047589e-21)
(0.44367192 -0.048045215 3.6682084e-21)
(0.4512222 -0.046629536 -3.2408291e-21)
(0.45901674 -0.045147803 3.1379485e-21)
(0.46702803 -0.043614147 2.7666799e-21)
(0.47522887 -0.042041714 -3.2111129e-21)
(0.48359264 -0.04044269 3.7056561e-22)
(0.49209351 -0.038828305 -3.2571642e-21)
(0.50070659 -0.037208853 7.2454148e-21)
(0.50940809 -0.035593694 6.1080598e-21)
(0.51817539 -0.033991269 8.0973193e-22)
(0.52698719 -0.032409111 -1.7683231e-21)
(0.5358235 -0.030853871 3.7021776e-21)
(0.54466576 -0.029331345 7.1885204e-21)
(0.55349681 -0.027846506 2.3049311e-21)
(0.56230092 -0.026403546 3.3164872e-21)
(0.57106381 -0.025005928 1.9956212e-21)
(0.57977261 -0.023656438 7.4557962e-22)
(0.58841588 -0.022357243 -2.6374555e-22)
(0.59698357 -0.021109959 2.7203136e-21)
(0.60546704 -0.019915717 6.1992219e-22)
(0.61385905 -0.018775237 2.9487788e-22)
(0.62215369 -0.017688922 5.6232508e-23)
(0.63034679 -0.016656898 9.8966664e-22)
(0.63843491 -0.015679309 4.7020116e-23)
(0.64641882 -0.014755856 4.4247525e-22)
(0.65429378 -0.013887991 -1.2621817e-22)
(0.66208006 -0.013072948 -2.7734913e-22)
(0.66973493 -0.012324353 -1.5218683e-22)
(0.67741384 -0.01161084 -4.2208071e-22)
(0.68472366 -0.011053543 1.6139426e-22)
(0.6928719 -0.010332337 -1.272367e-22)
(0.69859476 -0.010509441 -5.0126325e-22)
(0.7109572 -0.0088817758 2.4586982e-22)
(0.50927427 -0.035974269 3.6471413e-21)
(0.49953036 -0.042960649 -1.8958305e-20)
(0.49627552 -0.047383445 -2.3083852e-21)
(0.49555588 -0.049736749 5.4869423e-21)
(0.49416948 -0.051818012 3.0528156e-21)
(0.49269568 -0.053705378 -4.9891457e-23)
(0.49181223 -0.055187615 6.1896504e-21)
(0.49151444 -0.056265363 7.6251008e-21)
(0.4917116 -0.056990496 9.8580414e-21)
(0.49241065 -0.057395535 -1.1250038e-20)
(0.49363097 -0.057506261 -2.1579421e-20)
(0.4953677 -0.057348375 -3.9353502e-21)
(0.4976046 -0.056947088 1.5938142e-20)
(0.50032294 -0.056326965 1.2808957e-20)
(0.50350158 -0.055511687 -5.9066961e-21)
(0.50711644 -0.054523799 1.3817043e-21)
(0.51114131 -0.053384735 -3.6600844e-21)
(0.51554867 -0.052114889 2.2443766e-21)
(0.5203102 -0.050733595 -2.9123018e-22)
(0.52539726 -0.049259112 -1.8654094e-21)
(0.53078116 -0.047708606 7.8265879e-21)
(0.53643356 -0.046098155 -2.9308803e-22)
(0.54232662 -0.044442733 4.1818142e-22)
(0.54843331 -0.042756206 -6.5646615e-22)
(0.55472752 -0.041051325 -4.3029378e-21)
(0.56118422 -0.039339729 4.2085155e-21)
(0.56777956 -0.037631949 1.9031215e-21)
(0.57449099 -0.035937424 -3.3081916e-21)