/*--------------------------------*- C++ -*----------------------------------*\
  =========                 |
  \\      /  F ield         | OpenFOAM: The Open Source CFD Toolbox
   \\    /   O peration     | Website:  https://openfoam.org
    \\  /    A nd           | Version:  6
     \\/     M anipulation  |
\*---------------------------------------------------------------------------*/
FoamFile
{
    version     2.0;
    format      ascii;
    class       volVectorField;
    location    "272";
    object      UMean;
}
// * * * * * * * * * * * * * * * * * * * * * * * * * * * * * * * * * * * * * //

dimensions      [0 1 -1 0 0 0 0];

internalField   nonuniform List<vector> 
9200
(
(0.0015463635 0.001032104 -6.0539791e-20)
(0.015361663 -0.0032805998 4.7807527e-20)
(0.041284275 -0.0078034109 -3.9560321e-20)
(0.076607281 -0.012318497 -6.249612e-20)
(0.11946604 -0.016597473 1.9432002e-20)
(0.16861532 -0.020204877 3.39676e-20)
(0.22296743 -0.02285262 -1.2709054e-20)
(0.28151776 -0.024396806 9.6116614e-21)
(0.34332704 -0.024780245 1.7637176e-20)
(0.4074898 -0.024009264 1.5587958e-21)
(0.47311104 -0.022142404 -2.2568792e-20)
(0.53929759 -0.019279436 2.1700196e-20)
(0.60516123 -0.015550424 -4.2369034e-20)
(0.66983175 -0.011104611 -2.2241828e-20)
(0.73247795 -0.0060986282 6.2150192e-21)
(0.79233429 -0.00068680721 -2.6503394e-20)
(0.84874603 0.0050019039 2.662411e-20)
(0.90129175 0.011010704 2.3592489e-20)
(0.94960094 0.017469151 -2.6934579e-22)
(0.99101226 0.021041685 -1.6107177e-21)
(0.0059076188 -0.0017828116 -1.7441839e-20)
(0.029043922 -0.010309844 4.1122874e-20)
(0.065237731 -0.016856513 2.405444e-20)
(0.11137435 -0.021825441 -1.1946723e-19)
(0.1652838 -0.025392951 -1.3091437e-20)
(0.22546241 -0.02735588 7.6019195e-20)
(0.2905556 -0.027627218 -3.6790053e-20)
(0.35927984 -0.026250018 -8.7516206e-21)
(0.43041131 -0.023337869 3.5799539e-20)
(0.50276279 -0.019055877 -4.5244435e-20)
(0.57517299 -0.013612833 -3.186959e-20)
(0.64651389 -0.0072507991 7.5638681e-20)
(0.71571127 -0.00023331099 4.0203102e-20)
(0.78177379 0.0071662821 -7.1460479e-20)
(0.84382638 0.014674773 1.5373089e-20)
(0.90114247 0.022023759 -3.8619864e-20)
(0.95318364 0.028963547 -1.4599421e-20)
(0.99969774 0.035335888 7.4563381e-20)
(1.0405876 0.040732606 3.1735719e-20)
(1.0741056 0.042048271 -8.4820335e-20)
(0.011673845 -0.0045086763 3.7334729e-20)
(0.046448905 -0.016796486 2.3666549e-21)
(0.094689459 -0.02462702 2.2620609e-20)
(0.1529265 -0.029145273 1.009861e-21)
(0.21869479 -0.031017585 -4.1651283e-20)
(0.29020727 -0.030337334 1.9349501e-20)
(0.36580825 -0.02727896 1.3718697e-20)
(0.44390351 -0.022130202 -5.2231967e-20)
(0.52296564 -0.015228334 5.963733e-20)
(0.60153025 -0.006942833 1.5087109e-20)
(0.67820692 0.002332267 -5.6941353e-20)
(0.75170794 0.012191985 -1.9216037e-20)
(0.82088646 0.022236862 9.2684234e-21)
(0.88477607 0.032089146 2.4569992e-20)
(0.94262527 0.041406635 -1.1885192e-20)
(0.99391975 0.049891521 2.9158648e-20)
(1.0383943 0.057304339 -2.1182652e-20)
(1.076062 0.063510962 -7.302887e-20)
(1.1070904 0.068245984 -2.42347e-20)
(1.1306605 0.069641976 5.0221775e-20)
(0.018939971 -0.0068966199 2.4781853e-20)
(0.067691639 -0.022045678 5.2069165e-20)
(0.12962151 -0.030076889 2.0367906e-20)
(0.20098154 -0.033001218 1.3557007e-20)
(0.2790298 -0.032061886 1.79538e-20)
(0.36167965 -0.027718051 -4.9341051e-20)
(0.44695853 -0.020469487 -2.6612064e-20)
(0.53296257 -0.010905451 0)
(0.61789059 0.00036755456 1.5110783e-20)
(0.7000694 0.012745598 -6.4879205e-21)
(0.77799094 0.025638632 -1.0214132e-19)
(0.85036048 0.038490037 -1.632485e-20)
(0.91614352 0.050798515 6.8056876e-20)
(0.97460183 0.062137286 4.787158e-22)
(1.0253116 0.072168058 -1.638135e-21)
(1.0681595 0.080647719 2.2832156e-20)
(1.1033182 0.087434852 -5.3654269e-21)
(1.131221 0.092518069 -6.3403743e-20)
(1.152444 0.095875131 -4.761851e-20)
(1.1669817 0.096558515 7.1041666e-20)
(0.027731311 -0.0086647699 -3.8582587e-21)
(0.09266695 -0.025307808 -4.8841727e-21)
(0.1696363 -0.032134594 5.7715831e-20)
(0.25472025 -0.032133674 1.92006e-20)
(0.34494043 -0.027207336 -3.3165517e-20)
(0.43792064 -0.018249843 1.2354813e-20)
(0.53139585 -0.0061457045 2.7370771e-21)
(0.62320927 0.0081700977 3.5103881e-20)
(0.71138443 0.02379841 5.8939864e-21)
(0.79418271 0.039902315 -1.3946208e-20)
(0.87016178 0.055724069 6.3000563e-20)
(0.93822974 0.070609429 -6.0242584e-20)
(0.99768148 0.084030352 -1.3745627e-19)
(1.0482087 0.095599613 -5.7931839e-21)
(1.0898811 0.10507517 8.6165273e-20)
(1.1230995 0.11235361 0)
(1.1485295 0.11745916 1.0570697e-20)
(1.1670308 0.12054645 -1.5899657e-20)
(1.179543 0.12179915 -8.9880425e-21)
(1.1866386 0.12083006 2.1449974e-20)
(0.037983352 -0.0095086703 -5.2030731e-21)
(0.1210186 -0.025821279 4.4269979e-21)
(0.21394709 -0.029779578 -8.9318611e-21)
(0.31282544 -0.02543153 2.8903321e-20)
(0.41451465 -0.015403762 -3.0357584e-20)
(0.51640399 -0.0010832194 -1.7472853e-20)
(0.61601935 0.016220876 3.7988581e-20)
(0.71107749 0.03521376 4.766048e-21)
(0.79959747 0.054720086 -2.5748704e-20)
(0.87998281 0.073717988 7.2500369e-20)
(0.95108406 0.091358504 3.3895651e-22)
(1.0122354 0.10698716 -8.3536102e-20)
(1.0632551 0.12015658 0)
(1.1044074 0.13062415 4.0834932e-20)
(1.1363319 0.13833477 5.6637738e-21)
(1.1599487 0.14339136 -7.984076e-20)
(1.1763552 0.14602077 -2.01775e-20)
(1.1867286 0.14655146 -1.2771151e-20)
(1.1922208 0.14532615 -1.5116639e-20)
(1.1936883 0.14229093 4.1447489e-20)
(0.049528629 -0.0091221519 -1.7300254e-20)
(0.15212309 -0.022871491 -2.9076221e-21)
(0.26138715 -0.022132209 3.0608704e-20)
(0.37354109 -0.012043477 3.7617753e-20)
(0.4854072 0.0040126055 -2.0365155e-20)
(0.59425332 0.024127998 -7.1327203e-20)
(0.69754719 0.046567084 -2.9138112e-20)
(0.79307349 0.069709268 8.1558031e-20)
(0.879074 0.092172747 9.1074564e-21)
(0.95433431 0.11285095 -2.561591e-20)
(1.0182242 0.13092414 1.396481e-20)
(1.0706891 0.14586417 -4.4889174e-21)
(1.1121928 0.15742195 0)
(1.1436186 0.16559484 2.8034935e-20)
(1.166146 0.17057885 -8.1595552e-20)
(1.1811192 0.17271218 -3.2363182e-20)
(1.1899249 0.17242028 8.3138244e-20)
(1.1938944 0.17017621 -4.59618e-21)
(1.1942229 0.16642344 3.5903695e-21)
(1.1918211 0.16129353 2.7887548e-20)
(0.062090651 -0.0072251245 -3.2526251e-20)
(0.18509553 -0.01586266 -8.2959877e-20)
(0.31045454 -0.0085514204 1.9373726e-21)
(0.43477547 0.0085183725 7.1893425e-20)
(0.55501292 0.031231509 6.3967029e-20)
(0.66848788 0.057178259 -7.3003946e-20)
(0.77282279 0.084249873 8.1391579e-23)
(0.86611354 0.11059298 8.8472464e-20)
(0.94707511 0.13474459 5.0332522e-20)
(1.015104 0.15565773 -5.5994787e-20)
(1.0702676 0.17268831 -9.5176197e-20)
(1.113229 0.18556539 -3.2523533e-21)
(1.1451209 0.19433888 4.332184e-20)
(1.1673907 0.19930802 -6.7378827e-21)
(1.1816393 0.20094104 -1.3093297e-20)
(1.1894765 0.19979657 1.9996811e-20)
(1.1924068 0.19645735 4.4899561e-20)
(1.1917543 0.19148589 -4.473423e-20)
(1.1886219 0.18536391 -1.0457352e-19)
(1.1838306 0.17831307 2.5260547e-20)
(0.075254398 -0.0035942387 -3.5535621e-20)
(0.21875118 -0.0043936573 -1.7506411e-19)
(0.35928807 0.011282757 8.4373293e-20)
(0.49410576 0.036317542 9.49554e-20)
(0.62050919 0.065950432 5.9196091e-20)
(0.73610211 0.097350398 8.857803e-21)
(0.83891616 0.12815259 -1.0897202e-19)
(0.92761596 0.1564233 0)
(1.0016191 0.1807892 -7.0955119e-20)
(1.0611047 0.20043201 -1.5687319e-20)
(1.1069307 0.21503048 5.620512e-20)
(1.1404835 0.22468007 1.1236633e-20)
(1.1634913 0.22979218 -4.6720586e-20)
(1.1778308 0.23098361 -5.0164412e-20)
(1.1853568 0.22897115 2.4930054e-20)
(1.1877712 0.22448317 4.5934041e-20)
(1.186541 0.21819585 -5.6864399e-20)
(1.1828631 0.21069729 -1.0972529e-19)
(1.1776678 0.20245278 -3.0978592e-21)
(1.171619 0.19371735 2.7541798e-20)
(0.08844974 0.0019219757 -3.8378601e-21)
(0.2516099 0.011727907 8.9213233e-20)
(0.40570484 0.0373735 -1.5177296e-20)
(0.54886499 0.07101817 -8.6771461e-20)
(0.67899426 0.10742151 4.6279662e-20)
(0.79423676 0.14348567 4.9907525e-20)
(0.89329123 0.17677611 5.6879662e-21)
(0.97561796 0.20548461 -1.0203389e-19)
(1.0415023 0.22852704 -2.5714081e-21)
(1.091988 0.24548348 5.1828197e-20)
(1.1287156 0.25647784 6.1300397e-21)
(1.1537066 0.26203835 -2.0246095e-20)
(1.1691379 0.26295011 -7.7428204e-20)
(1.177141 0.26011592 -6.3347835e-21)
(1.1796506 0.25444149 4.44093e-20)
(1.1783117 0.24675348 3.7728612e-20)
(1.1744437 0.23775229 2.0079789e-20)
(1.1690502 0.22799447 -5.4229729e-20)
(1.1628614 0.21789008 1.2913758e-20)
(1.1563709 0.20769847 8.3992468e-20)
(-0.0013182903 0.0014494065 -9.2145633e-22)
(-0.0047585471 0.0031908853 1.9278367e-21)
(-0.010790134 0.0041084465 1.5665087e-21)
(-0.017690161 0.004471601 -1.4673154e-21)
(-0.024524889 0.0044511535 -2.0917541e-21)
(-0.030865579 0.0041626503 2.2241328e-21)
(-0.036439669 0.0036903221 -7.9579493e-21)
(-0.041071416 0.0030951493 -6.8739696e-21)
(-0.044664717 0.0024205549 1.2484524e-20)
(-0.04717756 0.0016971872 -1.0765192e-20)
(-0.048601884 0.00094642929 -2.0200958e-22)
(-0.04895076 0.00018295164 4.0228016e-21)
(-0.048249927 -0.0005833568 -6.65748e-22)
(-0.046532009 -0.0013458564 2.4593382e-20)
(-0.043832902 -0.0020997746 2.8131404e-22)
(-0.040191255 -0.002840737 -4.3772049e-20)
(-0.035650853 -0.0035641523 8.1224577e-21)
(-0.030252363 -0.0042679581 2.5336699e-20)
(-0.024005827 -0.0049506746 -4.6456992e-20)
(-0.016973239 -0.0055634323 -2.9307454e-20)
(-0.0016770902 0.0042202548 -5.6083946e-21)
(-0.0053948301 0.0092687106 1.0030547e-20)
(-0.011191334 0.011913638 -1.0424826e-20)
(-0.017509741 0.012938679 5.2163811e-21)
(-0.023514609 0.012842543 6.2240449e-21)
(-0.028828119 0.011964355 8.6361914e-22)
(-0.033213228 0.010551453 -2.6206217e-20)
(-0.036519967 0.0087828219 -2.2449739e-21)
(-0.038669661 0.0067858967 2.2388373e-20)
(-0.0396316 0.0046505937 -5.5555098e-21)
(-0.039404739 0.0024396053 -2.3798271e-20)
(-0.038006122 0.00019589062 5.3155218e-21)
(-0.035463268 -0.0020516754 2.4280844e-20)
(-0.031808856 -0.0042838065 1.1082275e-20)
(-0.027076951 -0.006486736 2.3530934e-20)
(-0.021303459 -0.0086480856 -2.1099791e-20)
(-0.014535954 -0.010754997 -2.2995553e-20)
(-0.0068252746 -0.0128009 2.2635973e-20)
(0.0018913718 -0.014771161 2.8257861e-20)
(0.011804456 -0.016497917 1.6502042e-20)
(-0.0023256162 0.0066106024 -4.5538805e-21)
(-0.0065021037 0.014450836 -5.0413936e-21)
(-0.011770812 0.018519542 1.1794399e-22)
(-0.016895896 0.020036227 1.8324212e-22)
(-0.021230667 0.019783118 7.3378517e-21)
(-0.024495406 0.018298331 1.1579855e-20)
(-0.026522013 0.01597518 -4.2362057e-21)
(-0.027210635 0.013098415 -2.0764669e-20)
(-0.026516668 0.0098710471 7.1980596e-21)
(-0.024431854 0.0064365159 1.4066668e-20)
(-0.020969578 0.0028949054 6.4660556e-21)
(-0.01615576 -0.00068523177 1.947239e-20)
(-0.01002288 -0.004258027 1.8596823e-21)
(-0.0026056581 -0.0077933078 -3.6080017e-20)
(0.006062733 -0.011269947 1.465706e-21)
(0.015949143 -0.014669335 -2.3174796e-20)
(0.026997462 -0.017974044 -2.6209944e-20)
(0.039133662 -0.02117536 4.8737408e-20)
(0.052542376 -0.024220042 2.6984771e-20)
(0.067908118 -0.026743661 3.9553207e-22)
(-0.0031420543 0.0084107111 -5.6301158e-21)
(-0.0077990677 0.018238657 -1.0560179e-20)
(-0.012171384 0.02325585 4.4529309e-21)
(-0.01546298 0.024999202 4.5520638e-21)
(-0.017287938 0.024465995 2.0906928e-21)
(-0.017504031 0.022354905 8.3474361e-21)
(-0.016041158 0.01917821 1.0400874e-20)
(-0.012871682 0.015307015 -1.5470798e-21)
(-0.0080012111 0.011006477 -1.2550434e-20)
(-0.0014559042 0.0064643781 -3.1571996e-20)
(0.0067272305 0.0018119283 1.386337e-22)
(0.016505457 -0.0028609572 4.3699634e-20)
(0.027834715 -0.0074946064 -1.9456987e-20)
(0.040671175 -0.012050209 -1.3106857e-20)
(0.054975365 -0.016501766 3.6044505e-22)
(0.07071045 -0.020828452 3.4347279e-20)
(0.087806054 -0.025015673 -1.6073616e-20)
(0.10614698 -0.029062247 -5.6155069e-20)
(0.12604625 -0.032851402 4.7858475e-20)
(0.14889435 -0.035701434 3.4670446e-20)
(-0.0039632725 0.0094770902 -5.1491639e-22)
(-0.0089008244 0.020278892 -1.3105475e-20)
(-0.011893916 0.02563825 -3.7369407e-20)
(-0.012661006 0.027269574 -6.7037893e-21)
(-0.011125885 0.026302222 -3.4270593e-21)
(-0.0073131555 0.023547708 6.9999122e-21)
(-0.0012740375 0.019603233 -5.2613762e-21)
(0.0069276699 0.014901429 -9.6961372e-21)
(0.017220546 0.0097520356 2.3671003e-20)
(0.029530547 0.0043748 5.3526817e-21)
(0.043785258 -0.0010762843 -2.7412063e-20)
(0.059913869 -0.0064955717 1.172406e-20)
(0.077847622 -0.01181301 0)
(0.097520372 -0.016984327 1.2837672e-20)
(0.11887167 -0.021982225 -1.0275414e-20)
(0.14184592 -0.026788843 -1.5265772e-20)
(0.16634533 -0.031402721 -1.1538189e-21)
(0.19219137 -0.035850941 -2.5197303e-21)
(0.21978555 -0.039950691 4.7729212e-20)
(0.25137442 -0.042561217 -1.1574967e-20)
(-0.0046026068 0.0097418176 -7.7411929e-21)
(-0.0093525681 0.020389319 2.6092564e-20)
(-0.010330011 0.025408624 -1.1535997e-20)
(-0.0077997384 0.026549126 -2.9409683e-20)
(-0.0020210147 0.024984487 -2.8991796e-20)
(0.0067956749 0.021587162 -1.606315e-20)
(0.018460474 0.01700091 -8.5264348e-22)
(0.032801784 0.011690873 5.9981477e-21)
(0.049667529 0.0059907536 2.0962817e-20)
(0.068921421 0.00013818252 7.8538473e-21)
(0.090438008 -0.0057002136 -7.6076996e-21)
(0.11410017 -0.011410127 -1.9696144e-21)
(0.13979534 -0.016916348 -4.0567204e-20)
(0.16741292 -0.022173057 -1.343903e-20)
(0.19684598 -0.027155534 2.0119492e-20)
(0.22799242 -0.031854242 -2.2379696e-20)
(0.26070381 -0.036291488 -9.4550948e-21)
(0.29471311 -0.040551401 3.1567622e-20)
(0.33043622 -0.044420254 5.2373588e-20)
(0.37102848 -0.04618563 3.5660391e-21)
(-0.0048656465 0.0092092971 1.7196179e-20)
(-0.0086621635 0.018561386 1.4859563e-20)
(-0.0067974931 0.022550415 5.373785e-20)
(-8.0814745e-05 0.022829263 2.4956728e-20)
(0.010886863 0.020530658 1.9652766e-22)
(0.025699079 0.016535453 -4.2183323e-20)
(0.044015181 0.011494108 -2.5840954e-20)
(0.065543001 0.0058745607 1.1145109e-20)
(0.090031708 1.1871123e-05 1.5312829e-20)
(0.11726147 -0.0058555414 -1.3809583e-20)
(0.14703228 -0.011560981 -4.6831668e-20)
(0.17915502 -0.016991334 3.1468523e-20)
(0.2134439 -0.022074039 2.103929e-20)
(0.24971074 -0.026768205 -2.9113187e-20)
(0.28776487 -0.031057845 1.2382685e-20)
(0.32741691 -0.034948581 2.5428704e-20)
(0.36843204 -0.038496548 8.5691141e-21)
(0.41042774 -0.04187419 -1.2641895e-20)
(0.45374469 -0.04491519 -1.4453881e-20)
(0.5023762 -0.045315525 7.0828747e-21)
(-0.0045610894 0.0079445347 1.1523249e-20)
(-0.0063269368 0.014943614 -2.485023e-20)
(-0.00057578121 0.017278566 8.5184584e-21)
(0.011362214 0.016391168 3.5492127e-20)
(0.028551204 0.013293998 5.4655614e-20)
(0.050385459 0.0088265504 2.1410963e-20)
(0.076364026 0.0036077494 -6.1767805e-21)
(0.10605564 -0.0019236908 -1.2980431e-20)
(0.1390899 -0.0074555836 -6.607148e-21)
(0.17513759 -0.012768004 3.6250249e-20)
(0.21389211 -0.017710343 -4.9112362e-21)
(0.25505536 -0.022184417 -1.7699011e-20)
(0.29832675 -0.02613256 -2.0696409e-20)
(0.34339534 -0.029530192 -5.0089941e-20)
(0.38993872 -0.032381119 2.4395554e-20)
(0.43763101 -0.034717444 -1.4799754e-20)
(0.48611029 -0.036642484 2.7400716e-20)
(0.53486352 -0.038452443 2.2152302e-20)
(0.58408747 -0.040152018 -8.8378123e-20)
(0.63842074 -0.039007449 2.0143933e-22)
(-0.0035077883 0.0060593412 2.2570877e-20)
(-0.0018592758 0.0098193185 -2.7466116e-20)
(0.0090483683 0.010022459 -4.6773361e-20)
(0.027396141 0.0077992401 -2.8508639e-20)
(0.05192825 0.0039707635 -2.1475406e-21)
(0.08183493 -0.00071240858 1.3786303e-20)
(0.11644128 -0.0057015598 -2.9918498e-21)
(0.15515766 -0.010618678 1.9050669e-20)
(0.1974655 -0.015201517 9.3147989e-21)
(0.2428901 -0.019271967 -1.1987048e-20)
(0.29097594 -0.022716341 9.4748355e-21)
(0.34126873 -0.025470564 -2.5215755e-20)
(0.39330253 -0.027509555 8.7066645e-21)
(0.44659132 -0.028840634 1.7682272e-20)
(0.50062794 -0.029499558 -2.917959e-21)
(0.55489402 -0.029552477 1.8439546e-21)
(0.6088442 -0.029150532 -5.1319494e-22)
(0.66181168 -0.028697641 2.0703222e-20)
(0.71381424 -0.028394047 4.002418e-21)
(0.76989912 -0.025586141 -1.754359e-21)
(-0.0015355304 0.0037011243 2.4563222e-20)
(0.0051936454 0.0035924134 5.9688491e-20)
(0.022727304 0.0014239103 -5.0957593e-20)
(0.048792207 -0.002079577 -1.0375181e-20)
(0.081825828 -0.0063604689 2.1193391e-20)
(0.12081 -0.010803885 2.2384297e-21)
(0.16487971 -0.014971146 -3.1172419e-20)
(0.21325947 -0.01858136 7.323851e-21)
(0.26524562 -0.021455223 7.4437089e-21)
(0.32017437 -0.02348733 -2.7573349e-20)
(0.37739437 -0.02463056 1.355395e-21)
(0.43624941 -0.024883379 -3.9161563e-20)
(0.49606887 -0.024279482 -3.8302123e-20)
(0.55616441 -0.022879489 6.924622e-20)
(0.61583262 -0.02076366 5.8605593e-21)
(0.67436187 -0.018031008 -1.5972428e-20)
(0.73101715 -0.014840204 2.0318974e-20)
(0.78496632 -0.01149595 -9.5550397e-22)
(0.83574817 -0.0080214439 2.0823563e-20)
(0.8870643 -0.0028885335 -2.0932726e-20)
(-0.0086074911 -0.005846584 6.1600352e-20)
(0.0012125683 -0.0063699958 1.6396105e-20)
(0.012449585 -0.0067898954 -3.653174e-20)
(0.024748445 -0.0070363155 1.7591049e-20)
(0.037833524 -0.0071925436 0)
(0.051640069 -0.0072873615 0)
(0.066104863 -0.0073236926 -2.3644098e-20)
(0.081144194 -0.0073095281 -1.6882202e-20)
(0.096683277 -0.0072546082 1.9652685e-20)
(0.11265868 -0.0071660468 1.8564671e-20)
(0.12901196 -0.0070492776 1.042834e-21)
(0.14568805 -0.0069090808 -1.0396381e-20)
(0.16263565 -0.0067496208 8.5196349e-21)
(0.17980682 -0.0065744287 1.8252404e-20)
(0.19715641 -0.0063865265 -5.3680818e-21)
(0.21464168 -0.0061885371 -1.0100319e-20)
(0.23222209 -0.0059827499 -4.2691249e-21)
(0.2498591 -0.0057711722 -4.3044059e-21)
(0.2675161 -0.0055555767 7.0386694e-22)
(0.28515832 -0.0053375366 1.2151601e-21)
(0.30275279 -0.0051184542 2.5765163e-21)
(0.32026839 -0.0048995814 6.5155755e-21)
(0.33767583 -0.0046820359 1.6333896e-22)
(0.3549477 -0.0044668133 -3.3673101e-21)
(0.37205853 -0.0042547957 1.3427703e-22)
(0.38898481 -0.0040467596 -5.5907532e-22)
(0.40570503 -0.0038433811 1.2003193e-21)
(0.42219969 -0.0036452412 9.853513e-22)
(0.43845131 -0.0034528307 -1.2925989e-21)
(0.45444441 -0.0032665553 -1.043299e-22)
(0.47016552 -0.0030867406 -2.7972441e-23)
(0.48560311 -0.0029136375 -3.3345986e-22)
(0.50074756 -0.0027474281 -4.0933448e-22)
(0.51559108 -0.002588232 8.3970876e-23)
(0.53012769 -0.0024361124 -1.2930565e-22)
(0.54435312 -0.0022910837 -2.0202599e-22)
(0.55826477 -0.0021531178 2.3013162e-22)
(0.57186169 -0.0020221521 2.6167189e-22)
(0.58514443 -0.0018980988 -2.8124679e-23)
(0.59811545 -0.0017808488 -1.6191246e-22)
(0.61077793 -0.0016703008 1.86092e-23)
(0.62313986 -0.0015663171 -2.7706076e-23)
(0.63520218 -0.0014689375 8.1998105e-23)
(0.64699639 -0.0013777972 -9.1359886e-24)
(0.65847423 -0.0012941585 -1.3041502e-22)
(0.66984016 -0.0012148287 3.6042721e-24)
(0.68058644 -0.0011518999 5.1072164e-24)
(0.69231375 -0.0010730484 -4.9656251e-24)
(0.7006504 -0.0010867573 2.6535199e-23)
(0.71793555 -0.00091536938 3.6966993e-22)
(0.0213987 -0.017211551 -1.3737064e-20)
(0.03026574 -0.018799878 -6.6192913e-20)
(0.041028583 -0.02003362 -3.2189201e-20)
(0.05282198 -0.020736037 4.0160545e-20)
(0.065255646 -0.021184785 1.5255035e-20)
(0.078344796 -0.021463374 -1.9064181e-20)
(0.092058177 -0.021572599 5.0858976e-21)
(0.10631505 -0.02153447 2.6074655e-20)
(0.12104806 -0.021377988 -1.2649642e-22)
(0.13620332 -0.021123579 -7.907931e-21)
(0.15172947 -0.020786563 -1.2929858e-20)
(0.16757678 -0.020380631 -8.8000377e-21)
(0.18369846 -0.019917808 1.7894039e-20)
(0.20005037 -0.019408297 9.4554695e-21)
(0.21659044 -0.018860853 -1.6282652e-20)
(0.23327841 -0.018283111 -6.0137608e-21)
(0.25007577 -0.017681762 3.1280683e-21)
(0.26694564 -0.017062698 8.1787794e-21)
(0.28385274 -0.016431142 6.9408211e-21)
(0.30076337 -0.015791745 -7.0481874e-21)
(0.31764544 -0.015148668 -3.3319125e-21)
(0.33446849 -0.014505637 1.5234193e-21)
(0.35120375 -0.013865986 6.0262212e-22)
(0.36782424 -0.013232693 1.2367244e-21)
(0.38430476 -0.012608404 2.264729e-22)
(0.40062197 -0.011995453 -3.6304539e-22)
(0.41675446 -0.011395875 -7.4265064e-22)
(0.43268272 -0.010811424 1.0482219e-21)
(0.44838921 -0.010243589 8.597089e-22)
(0.46385831 -0.009693601 -2.4611532e-22)
(0.47907634 -0.009162455 5.8645652e-22)
(0.4940315 -0.0086509225 -2.2647497e-22)
(0.50871384 -0.0081595699 -4.0331117e-22)
(0.52311523 -0.007688776 -6.1869813e-22)
(0.53722926 -0.0072387524 4.1394439e-22)
(0.55105123 -0.0068095629 -9.1510792e-23)
(0.56457805 -0.0064011453 2.0849903e-22)
(0.57780826 -0.006013333 -4.6087349e-22)
(0.59074189 -0.0056458838 4.3199066e-22)
(0.60338086 -0.0052984913 6.1713327e-23)
(0.6157278 -0.0049708725 -6.718814e-23)
(0.62779009 -0.0046626335 2.0665246e-22)
(0.63956817 -0.0043739118 2.7682086e-22)
(0.65109272 -0.0041036326 2.0840357e-22)
(0.6623156 -0.0038555845 2.1992494e-22)
(0.67343833 -0.0036202479 -1.9231827e-23)
(0.68395936 -0.0034337057 1.1212037e-22)
(0.69545692 -0.0031996265 9.9116265e-23)
(0.70362244 -0.0032408942 -2.023831e-22)
(0.72060174 -0.0027320502 -1.4903947e-23)
(0.079752235 -0.027546001 1.0124965e-20)
(0.086729928 -0.030208824 3.7526436e-21)
(0.09644188 -0.032201302 -1.3482951e-20)
(0.10719027 -0.033280517 -1.5642673e-21)
(0.11830143 -0.03398265 1.5864067e-20)
(0.12994674 -0.034440954 -1.5455288e-20)
(0.14216547 -0.03463485 -3.1129495e-20)
(0.15487893 -0.034594561 1.519156e-20)
(0.16803088 -0.034367619 1.8912798e-20)
(0.18158513 -0.033985647 -1.2008057e-20)
(0.19550318 -0.033471356 1.0396997e-21)
(0.20974451 -0.032845609 8.4686216e-21)
(0.22427013 -0.032127089 -1.5660343e-20)
(0.23904247 -0.031331712 3.6135652e-21)
(0.25402472 -0.030473202 7.7460041e-21)
(0.26918083 -0.029563626 -4.1389732e-22)
(0.2844757 -0.02861366 -8.9465968e-24)
(0.29987521 -0.027632776 -7.5932617e-21)
(0.31534625 -0.026629431 4.3197635e-21)
(0.33085688 -0.02561121 8.6247499e-21)
(0.34637639 -0.024584939 -3.8839986e-21)
(0.36187538 -0.023556763 -2.1791643e-21)
(0.37732592 -0.022532213 9.0902774e-22)
(0.39270159 -0.021516248 -1.7631454e-21)
(0.40797762 -0.020513291 1.3179441e-21)
(0.42313089 -0.019527258 6.9779757e-22)
(0.43814005 -0.018561584 1.7468304e-21)
(0.45298554 -0.017619239 -2.1298631e-21)
(0.4676496 -0.016702754 2.4178604e-21)
(0.48211631 -0.015814242 5.8333261e-22)
(0.49637154 -0.01495542 5.7344174e-22)
(0.51040299 -0.014127639 3.0511883e-22)
(0.52420007 -0.013331907 9.8911445e-22)
(0.53775396 -0.012568924 -1.522115e-21)
(0.55105747 -0.011839109 4.2149845e-22)
(0.56410505 -0.011142638 1.9919954e-22)
(0.57689273 -0.010479474 -7.2810643e-23)
(0.5894181 -0.009849407 2.9032707e-23)
(0.60168023 -0.0092521001 -3.9541666e-22)
(0.61367999 -0.0086871075 2.1567176e-22)
(0.625419 -0.008154021 -3.078311e-23)
(0.63690355 -0.007652245 5.1330032e-22)
(0.64813312 -0.0071820637 -2.3885207e-22)
(0.65913689 -0.006741748 3.9367393e-23)
(0.66986685 -0.0063376098 6.8634054e-23)
(0.68051914 -0.0059539837 -8.9640229e-23)
(0.69060384 -0.0056503302 -1.5010105e-22)
(0.70165628 -0.0052683312 4.8923896e-22)
(0.70948965 -0.0053373421 1.7980456e-22)
(0.72587584 -0.0045070238 -8.4827302e-22)
(0.16363121 -0.036120442 1.7605346e-21)
(0.16780662 -0.039841047 -1.1766784e-20)
(0.17574812 -0.042511186 6.602632e-21)
(0.18484663 -0.043874837 -1.3940137e-20)
(0.1939432 -0.044794696 -2.0612407e-21)
(0.20341222 -0.045443708 9.8277559e-21)
(0.21341165 -0.045756845 -1.070528e-20)
(0.22386149 -0.045763185 1.2021354e-21)
(0.23471359 -0.045526283 1.3285569e-20)
(0.24595457 -0.04508634 3.7497168e-21)
(0.25756275 -0.044470264 -6.3467214e-21)
(0.26950843 -0.04370346 -3.1562945e-21)
(0.28176163 -0.042809466 -5.5940832e-21)
(0.29429248 -0.041808614 -6.7268066e-21)
(0.30707025 -0.040718589 2.8635683e-21)
(0.32006369 -0.039555134 3.8638828e-22)
(0.33324145 -0.038332364 1.5347499e-21)
(0.34657239 -0.037062964 -3.3825978e-21)
(0.36002575 -0.03575838 -4.5205607e-21)
(0.37357141 -0.034428983 2.4920913e-21)
(0.38718003 -0.033084181 3.4624573e-21)
(0.40082326 -0.031732515 -1.7888841e-21)
(0.41447391 -0.030381716 1.667168e-21)
(0.42810606 -0.029038763 -4.8974995e-22)
(0.44169518 -0.027709913 -4.2341777e-21)
(0.45521827 -0.026400736 -3.0555412e-21)
(0.46865387 -0.02511614 -2.7537893e-22)
(0.48198214 -0.0238604 3.3250027e-22)
(0.49518495 -0.022637181 -2.2063607e-21)
(0.50824581 -0.021449567 -1.0307828e-21)
(0.52114993 -0.020300096 2.1803313e-22)
(0.53388422 -0.019190793 -1.3699457e-21)
(0.5464372 -0.018123208 -5.1098212e-23)
(0.55879905 -0.017098455 -4.9519928e-22)
(0.5709615 -0.016117261 -4.4487888e-22)
(0.58291786 -0.015180008 -6.6086417e-22)
(0.59466293 -0.014286781 -1.0192924e-21)
(0.60619303 -0.013437419 -1.9550407e-23)
(0.61750587 -0.012631584 -3.5698447e-24)
(0.62860099 -0.011868779 -5.9986666e-22)
(0.6394786 -0.011148556 -3.0144864e-23)
(0.65014352 -0.010470203 -4.071332e-22)
(0.66059396 -0.0098342223 -5.8944124e-22)
(0.67085701 -0.0092383219 4.735997e-22)
(0.68088501 -0.00869131 1.3888811e-23)
(0.69086636 -0.0081717087 2.3311203e-22)
(0.70032803 -0.0077612433 -1.7076813e-22)
(0.71074358 -0.007243183 -3.3267104e-22)
(0.7181018 -0.0073398882 -2.1015197e-23)
(0.73363641 -0.0062141435 4.8151868e-22)
(0.26910713 -0.042144426 -2.2589379e-20)
(0.26957232 -0.046896221 4.9545903e-20)
(0.27486981 -0.050151415 1.0666395e-20)
(0.2816161 -0.051732826 -1.652894e-20)
(0.28799382 -0.052870875 -2.4161163e-21)
(0.29456689 -0.053755373 2.4132166e-21)
(0.3016596 -0.054260067 -2.0245354e-21)
(0.30919207 -0.054402497 -4.8399718e-21)
(0.31711283 -0.054255235 -4.1415258e-21)
(0.32543015 -0.053863804 -1.2555039e-20)
(0.33414066 -0.053256892 1.8746761e-20)
(0.34322476 -0.052461758 6.933463e-21)
(0.35266003 -0.051504636 -1.7085363e-20)
(0.36242323 -0.0504089 1.0019799e-20)
(0.37248889 -0.049195265 8.026202e-21)
(0.38282968 -0.04788246 -4.5646041e-22)
(0.39341723 -0.046487572 -2.8530178e-21)
(0.40422263 -0.045026217 -4.2057286e-21)
(0.41521681 -0.043512686 -1.5661122e-21)
(0.42637081 -0.04196008 -1.3845464e-21)
(0.43765614 -0.040380411 -3.3173962e-21)
(0.44904496 -0.038784675 0)
(0.46051035 -0.037182907 -1.4724401e-21)
(0.47202644 -0.035584219 3.9803731e-21)
(0.48356858 -0.033996834 5.6500111e-21)
(0.49511347 -0.032428116 -9.1348251e-22)
(0.5066392 -0.03088459 -3.2393618e-21)
(0.51812537 -0.029371977 3.3989008e-21)
(0.52955313 -0.027895218 7.3409303e-23)
(0.54090515 -0.026458514 3.7277423e-21)
(0.55216573 -0.025065359 -5.1143614e-22)
(0.56332071 -0.023718591 1.7894837e-21)
(0.57435749 -0.022420432 -8.9187001e-22)
(0.585265 -0.021172546 3.9538293e-22)
(0.59603368 -0.019976094 -5.2353333e-22)
(0.60665545 -0.018831787 5.8140831e-22)
(0.61712366 -0.017739955 5.2561445e-22)
(0.62743314 -0.016700608 4.4150327e-22)
(0.63758006 -0.015713515 -1.0908896e-21)
(0.64756236 -0.014778243 7.7999465e-22)
(0.65737866 -0.013894411 -4.1172279e-22)
(0.66703208 -0.013061293 -1.3248673e-21)
(0.67651936 -0.012279694 1.6911342e-21)
(0.68586516 -0.011546876 -5.6167979e-23)
(0.69502235 -0.010874091 -1.9204897e-22)
(0.70416974 -0.010234504 -7.1743489e-24)
(0.7128558 -0.0097305577 -1.8444959e-22)
(0.72247596 -0.009092006 -5.7294291e-22)
(0.72924153 -0.0092160891 8.0042261e-22)
(0.74370684 -0.0078293215 -4.91636e-23)
(0.39123147 -0.044668574 -1.8944151e-20)
(0.38712153 -0.050480603 1.3174845e-20)
(0.38880279 -0.054270947 3.6866573e-21)
(0.39241081 -0.05609426 -8.0330916e-21)
(0.39539646 -0.057531475 1.260695e-20)
(0.39841941 -0.058751045 8.1317059e-21)
(0.40199549 -0.059569847 -1.2847148e-20)
(0.40606187 -0.059990565 -6.2887097e-21)
(0.41054824 -0.06008194 1.3115986e-20)
(0.41547246 -0.05988861 -1.6315067e-20)
(0.42084687 -0.059439829 -1.4422049e-20)
(0.42665987 -0.058763252 1.5069111e-20)
(0.43289303 -0.057885993 6.979603e-21)
(0.4395265 -0.056833304 -5.01511e-21)
(0.44653768 -0.055628364 -1.4414363e-21)
(0.45390115 -0.054292577 -3.6861124e-21)
(0.46158976 -0.052845845 4.9122394e-21)
(0.46957531 -0.0513067 3.6841986e-21)
(0.47782907 -0.049692373 -3.1487116e-21)
(0.48632217 -0.04801886 3.126484e-21)
(0.49502591 -0.046300977 2.9236908e-21)
(0.50391212 -0.044552408 -3.3487977e-21)
(0.51295336 -0.042785726 3.6777902e-22)
(0.52212314 -0.041012424 -3.2011622e-21)
(0.53139607 -0.039242931 7.9948102e-21)
(0.54074801 -0.037486634 6.4528786e-21)
(0.55015613 -0.035751903 1.0032723e-21)
(0.55959903 -0.034046119 -1.8272706e-21)
(0.56905677 -0.032375705 4.1749327e-21)
(0.57851088 -0.030746168 7.9164071e-21)
(0.58794443 -0.029162148 2.3836434e-21)
(0.59734196 -0.027627466 3.6429602e-21)
(0.60668951 -0.026145188 2.1174384e-21)
(0.61597461 -0.024717685 8.3597089e-22)
(0.62518621 -0.023346701 -2.4911591e-22)
(0.63431472 -0.022033427 3.0272757e-21)
(0.64335193 -0.020778575 6.8290225e-22)
(0.65229106 -0.019582455 3.1496865e-22)
(0.66112665 -0.018445077 5.6891693e-23)
(0.66985497 -0.017366192 1.1718859e-21)
(0.67847299 -0.016345599 4.3242112e-23)
(0.68698202 -0.015382671 5.5163725e-22)
(0.69537731 -0.014478609 -1.2653009e-22)
(0.70368088 -0.013630352 -3.7592925e-22)
(0.71184647 -0.012851519 -1.9054835e-22)
(0.7200418 -0.012110455 -5.2314033e-22)
(0.7278408 -0.011528441 2.2194321e-22)
(0.73654736 -0.010787597 -1.5476342e-22)
(0.74263383 -0.010938487 -4.5742179e-22)
(0.75586152 -0.0093311641 2.7495398e-22)
(0.52392321 -0.042770688 3.4827502e-21)
(0.51459028 -0.049682001 -1.9271767e-20)
(0.51171588 -0.054013472 -2.5329723e-21)
(0.51140825 -0.056264684 5.6620177e-21)
(0.51047009 -0.05822316 3.4876189e-21)
(0.50946611 -0.059965548 4.7538004e-22)
(0.50907265 -0.061282774 6.9954741e-21)
(0.5092868 -0.062178475 8.0553772e-21)
(0.5100165 -0.0627073 1.0062344e-20)
(0.51126658 -0.062904202 -1.1746854e-20)
(0.51305471 -0.062797377 -2.2680577e-20)
(0.51537433 -0.062414978 -4.4026216e-21)
(0.51820728 -0.061784554 1.6648733e-20)
(0.52153286 -0.060932842 1.3294519e-20)
(0.52532799 -0.059885521 -5.7765668e-21)
(0.52956675 -0.058666963 9.9282332e-22)
(0.53422113 -0.057300245 -4.0915571e-21)
(0.53926191 -0.055807211 2.9375872e-21)
(0.54465925 -0.054208451 -2.9302235e-22)
(0.55038305 -0.052523289 -1.9500165e-21)
(0.55640339 -0.050769772 8.3771812e-21)
(0.56269078 -0.048964675 -4.5432253e-22)
(0.56921644 -0.047123505 5.6803424e-22)
(0.57595251 -0.045260499 -4.9742009e-22)
(0.58287223 -0.043388635 -4.4743882e-21)
(0.58995004 -0.041519646 4.368688e-21)
(0.59716168 -0.03966404 1.8550862e-21)
(0.60448433 -0.037831132 -3.4195928e-21)
(0.61189656 -0.036029082 -4.0863051e-21)