/*--------------------------------*- C++ -*----------------------------------*\
  =========                 |
  \\      /  F ield         | OpenFOAM: The Open Source CFD Toolbox
   \\    /   O peration     | Website:  https://openfoam.org
    \\  /    A nd           | Version:  6
     \\/     M anipulation  |
\*---------------------------------------------------------------------------*/
FoamFile
{
    version     2.0;
    format      ascii;
    class       volScalarField;
    location    "243";
    object      pPrime2Mean;
}
// * * * * * * * * * * * * * * * * * * * * * * * * * * * * * * * * * * * * * //

dimensions      [0 4 -4 0 0 0 0];

internalField   nonuniform List<scalar> 
9200
(
0.046303692
0.038386511
0.031683456
0.027319321
0.023835565
0.020899021
0.018364891
0.016159317
0.014233139
0.012546993
0.011068283
0.0097696944
0.0086281722
0.0076241379
0.0067408812
0.0059641145
0.0052817426
0.0046836741
0.0041623848
0.0037080349
0.037559466
0.031079291
0.025659991
0.022097545
0.019239079
0.016822453
0.014733914
0.012915426
0.011327903
0.009939848
0.0087249689
0.0076610327
0.0067290785
0.0059128119
0.0051981408
0.0045728434
0.004026392
0.0035497099
0.0031343183
0.0027681251
0.029360257
0.024262268
0.020048606
0.017241089
0.014970154
0.013040793
0.011369002
0.009912053
0.0086407754
0.0075313172
0.0065633797
0.005719417
0.0049841106
0.0043439824
0.0037871174
0.0033029819
0.0028823192
0.0025169523
0.0021986589
0.0019166583
0.021933465
0.018119142
0.014996682
0.012875748
0.011138428
0.0096507823
0.0083564293
0.0072270165
0.006242739
0.0053867844
0.0046441864
0.0040014149
0.0034461708
0.0029672736
0.0025546135
0.0021991353
0.0018928186
0.0016285466
0.0013992927
0.0011968962
0.015483949
0.012815008
0.010639916
0.0091186376
0.0078471021
0.0067446239
0.0057795195
0.0049364073
0.0042038511
0.0035710734
0.0030274698
0.0025626644
0.0021666893
0.0018301834
0.0015445709
0.0013021838
0.0010963021
0.00092107844
0.00077110374
0.00064090175
0.010192241
0.0084937127
0.0070986499
0.0060744883
0.0051891588
0.0044061066
0.0037146361
0.0031103896
0.0025888253
0.0021438412
0.00176802
0.0014532195
0.0011911632
0.00097392588
0.0007942766
0.00064586922
0.00052328718
0.00042197989
0.00033809361
0.00026824449
0.0062093022
0.0052744223
0.0044752166
0.0038333885
0.0032453639
0.0027086675
0.0022291329
0.001810944
0.0014545805
0.0011570474
0.00091289991
0.00071538395
0.00055739167
0.00043214209
0.00033358895
0.00025659675
0.00019694205
0.00015123064
0.00011686449
9.1867485e-05
0.0036526836
0.0032492702
0.0028520677
0.0024690388
0.0020824852
0.0017134408
0.0013791761
0.0010895216
0.00084788241
0.00065277858
0.00049962723
0.00038236168
0.0002946303
0.00023054459
0.00018505028
0.00015402915
0.00013423457
0.00012317977
0.00011914139
0.0001209627
0.0026032607
0.0024807697
0.0022883256
0.0020350191
0.0017498612
0.0014663971
0.0012075254
0.00098544587
0.00080431215
0.00066271516
0.00055605774
0.00047846308
0.00042403359
0.00038753469
0.0003646578
0.00035202605
0.00034707107
0.00034789795
0.00035325667
0.00036232782
0.0031017401
0.0029997267
0.0028161497
0.0025612882
0.0022760848
0.0019948971
0.0017398523
0.0015221197
0.0013445975
0.0012048116
0.001097549
0.0010167888
0.00095683224
0.00091282027
0.000880867
0.00085798318
0.00084192035
0.00083102223
0.00082411615
0.0008203069
0.10986553
0.092401225
0.076367139
0.066228249
0.058177834
0.051420612
0.045602934
0.040534013
0.03609573
0.032195257
0.028756754
0.025717439
0.023024719
0.020634137
0.018507837
0.016613393
0.0149229
0.013411364
0.012055317
0.010841186
0.10846695
0.091135539
0.075285089
0.065262669
0.057313112
0.050642032
0.044898907
0.039896087
0.035516811
0.031669142
0.028277961
0.025281087
0.022626453
0.020270057
0.018174446
0.016307565
0.014641872
0.013152741
0.01181657
0.010620253
0.10561417
0.088629678
0.073176014
0.063402838
0.055659775
0.049163316
0.043570486
0.038699512
0.034436699
0.030692321
0.027393012
0.024478025
0.021896489
0.019605428
0.017568272
0.015753749
0.014135065
0.012688323
0.011389999
0.010227223
0.10135705
0.084944502
0.070100853
0.060706487
0.05327009
0.047031791
0.041660998
0.036984244
0.032892429
0.029299275
0.026134169
0.023338596
0.020863537
0.018667578
0.016715485
0.014977136
0.01342678
0.012041579
0.010798478
0.0096844554
0.095811829
0.080184579
0.066148677
0.057253286
0.050215531
0.044311899
0.039228967
0.034803729
0.030933034
0.027535169
0.024543177
0.021901518
0.019563629
0.017490154
0.015647605
0.014007334
0.012544854
0.011238629
0.01006674
0.0090158346
0.089136477
0.074488406
0.06143501
0.053145027
0.046586789
0.04108489
0.036347509
0.032223977
0.028618278
0.025454235
0.022669353
0.020211718
0.018037768
0.016110652
0.014398994
0.012875908
0.01151834
0.010306178
0.0092193785
0.0082446592
0.081522806
0.068022079
0.056096591
0.048501088
0.042489688
0.037445167
0.033101114
0.029320729
0.026016154
0.023117574
0.020567636
0.018318628
0.016330469
0.014569225
0.013005971
0.011615863
0.010377451
0.0092720565
0.0082820593
0.0073951139
0.0731895
0.060973406
0.050286987
0.043454756
0.038041916
0.03349733
0.029583
0.026177155
0.023200912
0.020591486
0.018297228
0.016275115
0.014488971
0.012908152
0.011506518
0.010261564
0.0091537
0.0081657618
0.0072828688
0.0064944787
0.064374208
0.053544904
0.044171033
0.03814835
0.033368658
0.029352309
0.025891703
0.022880819
0.02025036
0.017945096
0.015919532
0.014135725
0.012561761
0.011170604
0.0099391968
0.0088476791
0.0078786759
0.0070168756
0.0062504982
0.0055708583
0.055324939
0.045948134
0.037918949
0.032727013
0.028596568
0.025121683
0.022125851
0.019519035
0.017241905
0.015247127
0.013495649
0.011954857
0.010597304
0.0093997532
0.0083424252
0.0074083789
0.0065830277
0.0058540753
0.0052138602
0.00465408
0.0095603941
0.0082835741
0.0072010522
0.0062613426
0.0054586729
0.004771221
0.0041800514
0.0036689206
0.0032246229
0.0028364345
0.002495671
0.002195375
0.0019299618
0.00169489
0.001486415
0.0013014098
0.0011372266
0.00099159338
0.00086253692
0.00074832601
0.00064742776
0.00055847412
0.00048023599
0.00041160308
0.00035156827
0.00029921553
0.00025371033
0.00021429207
0.00018026795
0.00015100786
0.00012594006
0.00010454725
8.6363115e-05
7.096886e-05
5.7990105e-05
4.7093618e-05
3.7984355e-05
3.040224e-05
2.4119531e-05
1.8937184e-05
1.4683983e-05
1.1208828e-05
8.3915981e-06
6.1069705e-06
4.3055603e-06
2.8220798e-06
1.7952887e-06
8.2607981e-07
1.087608e-06
1.8014441e-06
0.0093749507
0.0081404698
0.0070889122
0.0061729899
0.0053898531
0.0047181691
0.0041391918
0.0036372909
0.0031999363
0.0028169401
0.0024800652
0.0021827227
0.0019195997
0.001686341
0.0014793285
0.0012955206
0.0011323282
0.00098752006
0.00085915314
0.00074551912
0.00064510333
0.00055655265
0.00047865049
0.00041029711
0.00035049435
0.00029833384
0.00025298756
0.00021370044
0.00017978437
0.00015061319
0.00012561846
0.00010428565
8.6150738e-05
7.0796845e-05
5.7851165e-05
4.6981764e-05
3.7894668e-05
3.0330678e-05
2.4062776e-05
1.8892515e-05
1.4649169e-05
1.1182048e-05
8.3713687e-06
6.0921107e-06
4.2951081e-06
2.8152801e-06
1.7916964e-06
8.2394931e-07
1.0811296e-06
1.7666974e-06
0.0090486244
0.0078903306
0.0068948192
0.0060225351
0.0052744819
0.0046306098
0.0040727591
0.0035865232
0.0031607111
0.0027861964
0.0024555833
0.0021629445
0.0019034411
0.001673034
0.001468314
0.0012863789
0.0011247335
0.00098121196
0.00085391848
0.00074118098
0.00064151352
0.00055358653
0.00047620315
0.00040828038
0.00034883429
0.00029696862
0.00025186567
0.00021277911
0.0001790282
0.00014999295
0.00012511009
0.00010386935
8.5810266e-05
7.0518852e-05
5.7624685e-05
4.6797786e-05
3.774577e-05
3.0210741e-05
2.3966749e-05
1.8816225e-05
1.4589168e-05
1.1135493e-05
8.335928e-06
6.065896e-06
4.2765973e-06
2.8032073e-06
1.7854133e-06
8.2019711e-07
1.0681834e-06
1.6988259e-06
0.0086014664
0.0075486146
0.0066327164
0.0058234822
0.00512462
0.0045185155
0.0039886767
0.0035227374
0.0031115844
0.0027477229
0.0024249511
0.0021382091
0.0018832557
0.0016564432
0.0014546169
0.0012750442
0.0011153461
0.00097343867
0.00084748659
0.00073586456
0.00063712405
0.00054996618
0.00047321977
0.0004058235
0.00034681183
0.00029530405
0.00025049562
0.00021165127
0.00017809952
0.00014922812
0.00012448016
0.00010335067
8.5383447e-05
7.0168046e-05
5.7336887e-05
4.6562306e-05
3.7553791e-05
3.0054971e-05
2.3841137e-05
1.8715741e-05
1.4509625e-05
1.1073407e-05
8.288422e-06
6.030615e-06
4.2516257e-06
2.786946e-06
1.7769773e-06
8.1528209e-07
1.0487634e-06
1.6013078e-06
0.0080531908
0.00713106
0.0063169459
0.0055895724
0.00495236
0.0043915022
0.0038942046
0.003451317
0.0030565432
0.0027045384
0.0023905531
0.0021104815
0.0018607135
0.0016380141
0.0014394995
0.0012626211
0.0011051299
0.00096503717
0.00084058006
0.00073018984
0.00063246356
0.0005461397
0.000470078
0.000403243
0.00034469087
0.00029355903
0.00024905805
0.00021046527
0.0001771196
0.00014841733
0.00012380855
0.00010279394
8.4921872e-05
6.9785583e-05
5.7020431e-05
4.6301101e-05
3.7338959e-05
2.9879143e-05
2.3698161e-05
1.8600456e-05
1.4417693e-05
1.1001179e-05
8.2328471e-06
5.9891724e-06
4.2222166e-06
2.7678644e-06
1.7670474e-06
8.0979167e-07
1.0230554e-06
1.4792511e-06
0.0074206383
0.0066519651
0.0059604377
0.0053319818
0.0047665323
0.0042557316
0.0037933354
0.0033749233
0.0029975394
0.0026582328
0.0023537982
0.0020810701
0.0018370429
0.0016188922
0.0014240171
0.0012500691
0.0010949466
0.00095677297
0.00083387202
0.00072474344
0.00062803918
0.00054254222
0.00046714866
0.00040085291
0.00034273573
0.00029195474
0.00024773706
0.00020937351
0.00017621391
0.00014766337
0.000123179
0.00010226705
8.4480296e-05
6.941539e-05
5.6710363e-05
4.6041977e-05
3.7123202e-05
2.9700439e-05
2.3551184e-05
1.8480682e-05
1.4321256e-05
1.0924761e-05
8.1736256e-06
5.9447846e-06
4.1906003e-06
2.7474613e-06
1.7563139e-06
8.0435233e-07
9.9135978e-07
1.3388556e-06
0.0067202529
0.0061256334
0.0055747052
0.0050574563
0.0045700202
0.0041117771
0.0036856186
0.0032930632
0.0029345266
0.0026092518
0.0023154889
0.0020509891
0.0018133543
0.0016001996
0.0014092482
0.0012383915
0.0010857087
0.00094946173
0.00082808204
0.00072015334
0.00062439391
0.00053963951
0.00046482841
0.0003989888
0.00034122856
0.00029072704
0.0002467287
0.00020853808
0.0001755158
0.00014707537
0.00012268037
0.00010184201
8.4116749e-05
6.9104e-05
5.6443799e-05
4.5814371e-05
3.6929728e-05
2.9537032e-05
2.3414337e-05
1.8367311e-05
1.4228619e-05
1.0850409e-05
8.1153829e-06
5.9007919e-06
4.159068e-06
2.7272559e-06
1.7454412e-06
7.9956689e-07
9.5408339e-07
1.1868294e-06
0.0059725275
0.0055684012
0.0051685807
0.0047650305
0.0043567401
0.0039532813
0.0035663569
0.0032029543
0.0028663647
0.0025576323
0.0022763675
0.0020213372
0.0017908849
0.0015831811
0.0013963707
0.0012286616
0.0010783697
0.00094393609
0.0008239276
0.00071703149
0.00062204542
0.00053786643
0.0004634803
0.0003979521
0.00034041838
0.00029008068
0.00024620053
0.00020809549
0.00017513596
0.00014674269
0.0001223845
0.00010157628
8.3876999e-05
6.8887679e-05
5.6249328e-05
4.5640694e-05
3.6776001e-05
2.9402449e-05
2.3298017e-05
1.8268266e-05
1.4145763e-05
1.0782576e-05
8.0613718e-06
5.8595156e-06
4.1291669e-06
2.7082554e-06
1.7347559e-06
7.9583192e-07
9.1168767e-07
1.0299081e-06
0.0051977786
0.0049873158
0.0047327807
0.004433514
0.0041036666
0.0037614559
0.003421917
0.0030948969
0.0027860446
0.0024982166
0.0022325515
0.0019891072
0.0017672435
0.0015658979
0.0013837895
0.001219554
0.001071823
0.00093927035
0.00082063552
0.00071473412
0.00062046003
0.00053678278
0.00046274314
0.000397448
0.00034006573
0.00028982203
0.00024599664
0.00020792064
0.00017497434
0.00014658553
0.00012222788
0.00010141946
8.3721118e-05
6.8734892e-05
5.6102128e-05
4.5501491e-05
3.6646857e-05
2.9284948e-05
2.3193217e-05
1.8176721e-05
1.4067588e-05
1.0717524e-05
8.0089098e-06
5.8190852e-06
4.0996025e-06
2.6896203e-06
1.7235386e-06
7.9295375e-07
8.6484489e-07
8.750046e-07
0.0044268288
0.004364573
0.0042259925
0.0040245864
0.0037814922
0.0035140858
0.0032350887
0.0029551775
0.0026823518
0.0024217488
0.0021764211
0.0019480472
0.0017373072
0.001544156
0.0013680763
0.0012082708
0.0010637897
0.0009336137
0.00081670772
0.00071205358
0.00061866855
0.00053561454
0.0004620019
0.00039699034
0.00033978835
0.00028965212
0.00024588441
0.00020783351
0.00017489236
0.0001464978
0.00012212978
0.00010131047
8.3603265e-05
6.8611514e-05
5.5977047e-05
4.5378451e-05
3.6529169e-05
2.9175302e-05
2.3093616e-05
1.8088486e-05
1.3991443e-05
1.0653677e-05
7.9571508e-06
5.7790866e-06
4.0702233e-06
2.671213e-06
1.7116943e-06
7.9074433e-07
8.1532895e-07
7.2938778e-07
0.0035880949
0.0036116089
0.0035674819
0.0034597307
0.0033083375
0.0031259739
0.0029213643
0.0027040185
0.0024827079
0.0022638892
0.0020520258
0.0018502046
0.0016604093
0.0014837203
0.0013205535
0.0011708692
0.0010343231
0.00091037334
0.00079835845
0.00069755144
0.00060719618
0.00052653091
0.00045480345
0.00039128087
0.00033525577
0.0002860504
0.00024301948
0.00020555224
0.00017307394
0.0001450469
0.00012097116
0.00010038473
8.286346e-05
6.8020493e-05
5.5505353e-05
4.5002671e-05
3.6230634e-05
2.8939084e-05
2.2907729e-05
1.7943303e-05
1.3879169e-05
1.0568143e-05
7.8931021e-06
5.7330772e-06
4.0376933e-06
2.6523939e-06
1.6979936e-06
7.8945291e-07
7.6379791e-07
6.0118391e-07
0.0027812923
0.0028521639
0.0028671279
0.0028261436
0.0027451574
0.0026334431
0.0024961585
0.0023406111
0.002174637
0.0020044143
0.0018345558
0.0016686144
0.0015092096
0.0013581056
0.0012163841
0.0010846212
0.00096302125
0.00085151855
0.00074985787
0.00065765551
0.00057444344
0.00049970099
0.00043287741
0.00037340823
0.00032072699
0.00027427405
0.0002335032
0.00019788685
0.00016692008
0.00014012376
0.00011704702
9.7268931e-05
8.0399586e-05
6.6080648e-05
5.3985296e-05
4.3817727e-05
3.5312252e-05
2.8231969e-05
2.2367412e-05
1.7534207e-05
1.3572799e-05
1.0342136e-05
7.729083e-06
5.6181605e-06
3.9582014e-06
2.6049493e-06
1.6642394e-06
7.8160038e-07
6.9800936e-07
4.7923571e-07
0.0020873765
0.0021894161
0.0022457183
0.0022560862
0.0022303051
0.0021751345
0.0020937389
0.0019913057
0.0018742756
0.0017481636
0.0016173516
0.0014854686
0.0013554365
0.0012294477
0.0011090597
0.00099532608
0.00088890408
0.00079014033
0.00069914506
0.00061585278
0.00054006931
0.00047150783
0.00040981634
0.00035459877
0.0003054312
0.00026187451
0.00022348433
0.00018981909
0.00016044642
0.00013494832
0.00011292532
9.399961e-05
7.7817358e-05
6.4050304e-05
5.2396624e-05
4.2581221e-05
3.4355484e-05
2.7496558e-05
2.1806454e-05
1.7110229e-05
1.3255823e-05
1.0108697e-05
7.5598636e-06
5.499809e-06
3.8760672e-06
2.5563095e-06
1.6279368e-06
7.7477439e-07
6.2645623e-07
3.6466479e-07
0.0015041675
0.0016223689
0.0017041141
0.0017501463
0.0017648591
0.00175273
0.0017158249
0.0016575212
0.0015825919
0.0014955758
0.0014003372
0.0013002632
0.0011982694
0.001096719
0.00099744225
0.00090181426
0.00081082924
0.00072516393
0.00064523766
0.00057126595
0.00050330523
0.00044128902
0.00038505727
0.00033437999
0.00028897626
0.00024852965
0.00021270078
0.00018113763
0.00015348404
0.00012938672
0.00010850089
9.0494851e-05
7.5053528e-05
6.1881071e-05
5.0702674e-05
4.1265656e-05
3.3339931e-05
2.6717892e-05
2.1214023e-05
1.6663623e-05
1.2922777e-05
9.863995e-06
7.3828259e-06
5.3761114e-06
3.7901067e-06
2.5052253e-06
1.5888307e-06
7.6779014e-07
5.5430134e-07
2.6648876e-07
0.0010351138
0.0011540707
0.001246593
0.0013133245
0.0013546714
0.0013728978
0.0013692264
0.0013456249
0.0013052351
0.0012514449
0.0011874006
0.001116019
0.0010399589
0.00096152
0.00088260593
0.00080474993
0.00072915336
0.000656724
0.0005881171
0.00052377673
0.00046397341
0.00040883664
0.0003583828
0.00031253883
0.00027116219
0.00023405757
0.00020099103
0.00017170182
0.00014591246
0.00012333715
0.00010368871
8.6684441e-05
7.2050667e-05
5.9526402e-05
4.8866032e-05
3.9841202e-05
3.2241995e-05
2.5877452e-05
2.0575701e-05
1.6183253e-05
1.2565147e-05
9.6015675e-06
7.1931452e-06
5.2434461e-06
3.6977716e-06
2.4496578e-06
1.5459385e-06
7.5935214e-07
4.8448561e-07
1.8943285e-07
0.00067587824
0.00078322878
0.00087418758
0.00094852251
0.0010041077
0.0010412584
0.0010603156
0.0010621366
0.0010484643
0.001021523
0.00098362926
0.00093708633
0.00088412212
0.00082678679
0.00076688324
0.00070594948
0.00064526448
0.00058586163
0.00052854942
0.00047393731
0.00042246286
0.00037441738
0.00032996965
0.00028918724
0.00025205536
0.00021849346
0.00018836967
0.00016151329
0.00013772571
0.0001167897
9.8477382e-05
8.2556957e-05
6.8798213e-05
5.6977024e-05
4.6878864e-05
3.8301434e-05
3.1056532e-05
2.4971193e-05
1.9888354e-05
1.5666711e-05
1.2181086e-05
9.319983e-06
6.9897138e-06
5.100877e-06
3.5983767e-06
2.3888215e-06
1.4990928e-06
7.4852711e-07
4.194237e-07
1.3512888e-07
0.00041481097
0.00050297264
0.00058346482
0.00065512975
0.00071461423
0.00076083129
0.00079326543
0.00081187843
0.0008173013
0.00081071109
0.00079358261
0.00076754393
0.00073429086
0.00069549459
0.00065272073
0.00060738177
0.00056071604
0.00051377982
0.00046744927
0.00042243024
0.00037927297
0.00033838886
0.00030006772
0.00026449476
0.00023176663
0.00020190628
0.00017487653
0.00015059225
0.0001289313
0.00010974416
9.2862391e-05
7.8105889e-05
6.528911e-05
5.4226205e-05
4.4735218e-05
3.6641368e-05
2.9779537e-05
2.3996008e-05
1.9149637e-05
1.5112264e-05
1.176933e-05
9.0183032e-06
6.7718339e-06
4.9478123e-06
3.4915186e-06
2.3221679e-06
1.4483895e-06
7.3447052e-07
3.6096986e-07
1.0227502e-07
0.00023684438
0.00030260414
0.00036734199
0.00042931471
0.00048491053
0.00053227031
0.00057021987
0.00059804178
0.00061554434
0.00062305142
0.00062127156
0.00061117216
0.00059389017
0.00057064976
0.00054268628
0.00051118797
0.00047725542
0.00044187688
0.00040591503
0.0003701027
0.00033504528
0.00030122764
0.00026902375
0.00023870792
0.00021046657
0.0001844102
0.00016058481
0.00013898288
0.00011955348
0.00010221158
8.6846444e-05
7.3329053e-05
6.1518639e-05
5.1268234e-05
4.2429344e-05
3.4855748e-05
2.8406508e-05
2.2948218e-05
1.8356657e-05
1.4517705e-05
1.1328233e-05
8.6953169e-06
6.5386296e-06
4.7835807e-06
3.3767786e-06
2.2492353e-06
1.3940365e-06
7.1652221e-07
3.1019476e-07
8.6956737e-08
0.00012621164
0.00016953262
0.00021632543
0.00026465098
0.00031121849
0.00035392867
0.0003912496
0.000422033
0.00044553954
0.00046146769
0.00046990032
0.00047122071
0.000466039
0.00045512507
0.00043934291
0.00041959356
0.0003967695
0.00037171914
0.00034522231
0.00031797513
0.00029058214
0.00026355392
0.00023730893
0.00021217827
0.0001884125
0.0001661896
0.0001456235
0.0001267729
0.00010964987
9.4228137e-05
8.0450878e-05
6.8237849e-05
5.7491823e-05
4.8104272e-05
3.9960265e-05
3.2942595e-05
2.6935163e-05
2.1825645e-05
1.7507539e-05
1.3881532e-05
1.0856662e-05
8.3502094e-06
6.2895479e-06
4.6078139e-06
3.2540002e-06
2.1698898e-06
1.3364538e-06
6.9442627e-07
2.6745284e-07
8.3639377e-08
6.8030522e-05
9.0894207e-05
0.00011985672
0.00015307374
0.00018784485
0.00022219137
0.0002545179
0.00028349535
0.00030808692
0.00032759357
0.00034164711
0.00035016801
0.00035331751
0.00035145002
0.0003450637
0.00033475164
0.00032115848
0.00030494385
0.00028675234
0.00026719091
0.00024681363
0.00022611185
0.00020550913
0.00018535981
0.00016595057
0.00014750406
0.00013018388
0.00011410066
9.9318524e-05
8.5861782e-05
7.3721604e-05
6.2862388e-05
5.322773e-05
4.4745882e-05
3.7334612e-05
3.0905432e-05
2.5367174e-05
2.0628939e-05
1.6602435e-05
1.320371e-05
1.0354561e-05
7.9829795e-06
6.0246682e-06
4.4206746e-06
3.1234495e-06
2.0844412e-06
1.2762874e-06
6.6840301e-07
2.3254723e-07
8.6523133e-08
4.9216516e-05
5.4672669e-05
6.7411046e-05
8.5846323e-05
0.00010793725
0.00013202056
0.00015665304
0.0001805328
0.00020253491
0.00022176658
0.00023758672
0.00024959552
0.00025761257
0.00026165027
0.00026188235
0.00025860867
0.0002522196
0.00024316318
0.0002319161
0.00021895881
0.00020475572
0.00018974063
0.00017430636
0.00015879826
0.00014351094
0.00012868762
0.00011452152
0.00010115875
8.8702327e-05
7.7216828e-05
6.6733513e-05
5.7255514e-05
4.8762983e-05
4.1217988e-05
3.4569048e-05
2.8755216e-05
2.3709659e-05
1.9362701e-05
1.5644347e-05
1.2486259e-05
9.8233604e-06
7.5947242e-06
5.7448921e-06
4.2229763e-06
2.9858878e-06
1.9936743e-06
1.2143837e-06
6.3912766e-07
2.0491843e-07
9.081226e-08
5.8845407e-05
5.030934e-05
4.9228582e-05
5.4335096e-05
6.4202239e-05
7.7551318e-05
9.3209681e-05
0.00011004271
0.00012699198
0.00014313375
0.00015771171
0.00017014638
0.00018003361
0.00018713668
0.00019137176
0.00019278745
0.0001915406
0.00018787085
0.00018207617
0.00017449013
0.00016546173
0.00015533851
0.00014445331
0.00013311419
0.00012159749
0.00011014352
9.8954553e-05
8.8194702e-05
7.799124e-05
6.8437072e-05
5.9593966e-05
5.1496295e-05
4.4155029e-05
3.7561779e-05
3.169274e-05
2.651238e-05
2.1976808e-05
1.8036746e-05
1.4640075e-05
1.1733935e-05
9.2664543e-06
7.1879435e-06
5.4521283e-06
4.0162729e-06
2.8425975e-06
1.8988038e-06
1.1517138e-06
6.0759108e-07
1.8374936e-07
9.347373e-08
8.8141265e-05
6.8935143e-05
5.6722701e-05
5.054177e-05
4.9481303e-05
5.2636265e-05
5.9141072e-05
6.8098641e-05
7.8612289e-05
8.9840961e-05
0.00010103544
0.00011155734
0.00012089014
0.00012864487
0.00013455933
0.00013849077
0.00014040342
0.00014035258
0.00013846701
0.000134931
0.00012996692
0.00012381917
0.00011674018
0.00010897878
0.000100771
9.2333174e-05
8.3857213e-05
7.550786e-05
6.7421534e-05
5.9706576e-05
5.2444534e-05
4.5692259e-05
3.9484537e-05
3.3837059e-05
2.874952e-05
2.4208713e-05
2.0191469e-05
1.6667376e-05
1.3601201e-05
1.0954967e-05
8.689718e-06
6.7668883e-06
5.1495026e-06
3.8029576e-06
2.6954095e-06
1.8014197e-06
1.0893151e-06
5.7493873e-07
1.6802508e-07
9.3312337e-08
0.00013026657
0.0001033612
8.2643615e-05
6.7411158e-05
5.7151895e-05
5.1281236e-05
4.9222608e-05
5.0330753e-05
5.3912884e-05
5.9275704e-05
6.5758707e-05
7.2755071e-05
7.9728059e-05
8.6224284e-05
9.1882104e-05
9.6434257e-05
9.9705273e-05
0.00010160476
0.00010211763
0.00010129233
9.9227967e-05
9.6061297e-05
9.1954232e-05
8.7082471e-05
8.1625679e-05
7.5759314e-05
6.9648226e-05
6.344192e-05
5.7271434e-05
5.1247601e-05
4.546051e-05
3.9979944e-05
3.485658e-05
3.0123732e-05
2.5799462e-05
2.1888884e-05
1.8386512e-05
1.5278554e-05
1.2545052e-05
1.0161806e-05
8.1020648e-06
6.3379446e-06
4.8416007e-06
3.5863846e-06
2.5467414e-06
1.7034301e-06
1.0282486e-06
5.4230825e-07
1.5657398e-07
9.0477982e-08
0.00018002702
0.00014792909
0.00012107306
9.8959329e-05
8.1363218e-05
6.7951622e-05
5.8390186e-05
5.2263283e-05
4.9084171e-05
4.833175e-05
4.9477528e-05
5.200373e-05
5.5419681e-05
5.927749e-05
6.3184887e-05
6.6813905e-05
6.9905292e-05
7.2269118e-05
7.3782065e-05
7.4381974e-05
7.4060338e-05
7.2853468e-05
7.0833043e-05
6.809663e-05
6.4758714e-05
6.0942611e-05
5.6773464e-05
5.2372517e-05
4.7852645e-05
4.3315149e-05
3.8847705e-05
3.4523319e-05
3.0400156e-05
2.6522051e-05
2.2919551e-05
1.9611322e-05
1.6605778e-05
1.3902809e-05
1.1495507e-05
9.3718058e-06
7.5159893e-06
5.9100398e-06
4.5347509e-06
3.3710406e-06
2.3996875e-06
1.6070663e-06
9.6962641e-07
5.1074807e-07
1.4818523e-07
8.5763592e-08
0.00023356331
0.00019829656
0.00016731671
0.00014027467
0.00011713749
9.7755314e-05
8.1979563e-05
6.9583504e-05
6.0263523e-05
5.366601e-05
4.9407035e-05
4.7085532e-05
4.6296578e-05
4.6645807e-05
4.7762912e-05
4.9312712e-05
5.1003382e-05
5.2591827e-05
5.3886242e-05
5.4745997e-05
5.5079173e-05
5.4838199e-05
5.401411e-05
5.2629963e-05
5.0733875e-05
4.8392126e-05
4.5682697e-05
4.2689452e-05
3.9497175e-05
3.6187523e-05
3.283595e-05
2.9509524e-05
2.6265601e-05
2.3151218e-05
2.0203103e-05
1.7448167e-05
1.4904345e-05
1.2581672e-05
1.0483493e-05
8.6077071e-06
6.9479968e-06
5.4949976e-06
4.2372953e-06
3.1627316e-06
2.2581396e-06
1.5149347e-06
9.1468682e-07
4.8120825e-07
1.4178891e-07
8.0038389e-08
0.00028807017
0.00025120895
0.00021774576
0.0001874393
0.00016037351
0.00013652281
0.00011587013
9.8331616e-05
8.3751856e-05
7.1922603e-05
6.259585e-05
5.5491806e-05
5.0307904e-05
4.6729983e-05
4.4443972e-05
4.3146603e-05
4.2554693e-05
4.2412722e-05
4.2498507e-05
4.2626779e-05
4.2650671e-05
4.2461282e-05
4.1985582e-05
4.1183016e-05
4.0041168e-05
3.8570854e-05
3.6801008e-05
3.4773667e-05
3.2539278e-05
3.0152539e-05
2.7668849e-05
2.5141481e-05
2.2619423e-05
2.0145909e-05
1.7757542e-05
1.5483944e-05
1.3347824e-05
1.1365383e-05
9.546946e-06
7.8977446e-06
6.4187806e-06
5.1077328e-06
3.9597714e-06
2.9687358e-06
2.1269092e-06
1.4301087e-06
8.649095e-07
4.5460429e-07
1.3665325e-07
7.3982169e-08
0.00034155728
0.00030428407
0.000269623
0.00023740864
0.00020778717
0.00018081076
0.00015654782
0.00013501423
0.00011616531
9.9908358e-05
8.6110621e-05
7.4602855e-05
6.5184188e-05
5.7629536e-05
5.1698285e-05
4.7143013e-05
4.3717872e-05
4.118632e-05
3.9327897e-05
3.7943705e-05
3.6860384e-05
3.5932528e-05
3.5043577e-05
3.410532e-05
3.3056224e-05
3.1858836e-05
3.0496532e-05
2.8969881e-05
2.7292903e-05
2.5489401e-05
2.3589573e-05
2.1627009e-05
1.9636163e-05
1.7650338e-05
1.5700177e-05
1.3812639e-05
1.20104e-05
1.0311626e-05
8.7300389e-06
7.2752073e-06
5.9529991e-06
4.7661631e-06
3.7149023e-06
2.7978349e-06
2.011781e-06
1.3561959e-06
8.2210928e-07
4.3189879e-07
1.3249416e-07
6.8057818e-08
0.00039265467
0.00035582419
0.00032093531
0.00028787606
0.00025681739
0.00022785511
0.00020110717
0.00017665314
0.00015452472
0.00013471415
0.00011717853
0.00010184023
8.8588475e-05
7.7283298e-05
6.7761081e-05
5.9840634e-05
5.3329636e-05
4.8031165e-05
4.375008e-05
4.0298849e-05
3.7502578e-05
3.5203003e-05
3.3261371e-05
3.1560144e-05
3.0003583e-05
2.8517321e-05
2.7047077e-05
2.5556698e-05
2.4025752e-05
2.2446849e-05
2.0822894e-05
1.9164411e-05
1.7487077e-05
1.5809549e-05
1.4151637e-05
1.2532853e-05
1.0971322e-05
9.4830414e-06
8.081453e-06
6.777267e-06
5.5785033e-06
4.4907185e-06
3.5172991e-06
2.6601509e-06
1.91944e-06
1.2973365e-06
7.8847221e-07
4.1416504e-07
1.294575e-07
6.2574262e-08
0.00044045809
0.00040465881
0.00037024397
0.00033713988
0.00030551846
0.0002754955
0.00024721254
0.00022078495
0.00019629246
0.00017378486
0.00015328397
0.0001347822
0.00011824179
0.0001035962
9.075288e-05
7.959682e-05
6.9994722e-05
6.1799715e-05
5.4856433e-05
4.900612e-05
4.4091536e-05
3.9961387e-05
3.6474128e-05
3.3500975e-05
3.0928054e-05
2.8657682e-05
2.6608797e-05
2.471664e-05
2.2931801e-05
2.1218777e-05
1.9554199e-05
1.792486e-05
1.6325699e-05
1.4757836e-05
1.3226771e-05
1.1740779e-05
1.0309581e-05
8.943263e-06
7.6514784e-06
6.4428953e-06
5.3248686e-06
4.3033285e-06
3.3827829e-06
2.5667127e-06
1.8572124e-06
1.258077e-06
7.6649337e-07
4.0259472e-07
1.279908e-07
5.773669e-08
0.00048440799
0.00045001658
0.0004165562
0.0003839817
0.00035245181
0.00032208717
0.00029303526
0.00026542721
0.00023936914
0.00021494604
0.00019222251
0.00017124031
0.0001520164
0.00013454246
0.00011878574
0.00010469043
9.2179841e-05
8.1159215e-05
7.1519139e-05
6.3139367e-05
5.5892844e-05
4.9649717e-05
4.4281162e-05
3.9662832e-05
3.5677813e-05
3.2218955e-05
2.9190553e-05
2.6509352e-05
2.4104915e-05
2.1919421e-05
1.9906986e-05
1.8032616e-05
1.6270907e-05
1.4604597e-05
1.3023074e-05
1.1520933e-05
1.0096631e-05
8.7513017e-06
7.4877594e-06
6.3096963e-06
5.221082e-06
4.2257692e-06
3.3272329e-06
2.5286824e-06
1.8325693e-06
1.2430828e-06
7.5880216e-07
3.9843685e-07
1.2867591e-07
5.3669148e-08
0.00052419406
0.00049142152
0.00045921736
0.00042755881
0.00039658425
0.00036641004
0.00033717861
0.00030902344
0.00028206156
0.00025639631
0.00023211749
0.00020929858
0.00018799424
0.00016823888
0.00015004616
0.00013340889
0.00011829964
0.00010467188
9.2461842e-05
8.1590868e-05
7.1968243e-05
6.3494264e-05
5.6063476e-05
4.956788e-05
4.3899987e-05
3.8955562e-05
3.4635981e-05
3.0850097e-05
2.7515601e-05
2.4559858e-05
2.1920257e-05
1.9544112e-05
1.7388205e-05
1.5418034e-05
1.3606871e-05
1.1934692e-05
1.0387079e-05
8.9541424e-06
7.6295207e-06
6.4094934e-06
5.2922372e-06
4.2772446e-06
3.3648631e-06
2.5561689e-06
1.8523424e-06
1.2566548e-06
7.6786415e-07
4.0286357e-07
1.320767e-07
5.0429533e-08
0.00055968126
0.00052861052
0.0004978225
0.00046731316
0.00043719764
0.00040758329
0.00037860133
0.00035037928
0.00032303489
0.00029667806
0.00027141066
0.00024732402
0.00022449633
0.00020299078
0.00018285434
0.00016411682
0.00014679032
0.0001308692
0.00011633062
0.00010313564
9.123075e-05
8.0549851e-05
7.101659e-05
6.2546888e-05
5.5051585e-05
4.843906e-05
4.2617722e-05
3.7498249e-05
3.2995518e-05
2.9030156e-05
2.5529682e-05
2.242924e-05
1.9671951e-05
1.7208909e-05
1.4998896e-05
1.3007858e-05
1.1208229e-05
9.57815e-06
8.1006618e-06
6.7629026e-06
5.5553675e-06
4.4712644e-06
3.5059472e-06
2.6566264e-06
1.9216426e-06
1.3020428e-06
7.9556361e-07
4.167682e-07
1.386207e-07
4.8026385e-08
0.00059084637
0.00056146206
0.00053213867
0.0005028887
0.00047380398
0.0004449809
0.00041653669
0.00038858855
0.00036124873
0.000334626
0.00030882536
0.00028394588
0.00026007833
0.0002373033
0.0002156897
0.00019529334
0.00017615579
0.00015830356
0.00014174771
0.00012648393
0.00011249301
9.9741755e-05
8.8184388e-05
7.7764163e-05
6.8415347e-05
6.0065341e-05
5.2636895e-05
4.6050294e-05
4.0225446e-05
3.5083769e-05
3.0549823e-05
2.6552642e-05
2.3026741e-05
1.9912791e-05
1.7157988e-05
1.4716134e-05
1.2547493e-05
1.0618443e-05
8.9010111e-06
7.3723084e-06
6.0139446e-06
4.8114507e-06
3.7537182e-06
2.8326399e-06
2.0423469e-06
1.3804694e-06
8.4261972e-07
4.4047333e-07
1.48487e-07
4.6430898e-08
0.00061773591
0.00058994761
0.0005620503
0.00053407209
0.00050608277
0.00047816764
0.00045042947
0.00042297332
0.00039590284
0.00036932126
0.00034333107
0.0003180323
0.00029352054
0.00026988526
0.00024720821
0.00022556194
0.00020500835
0.00018559748
0.00016736652
0.00015033919
0.00013452543
0.00011992148
0.00010651031
9.42625e-05
8.313736e-05
7.3084411e-05
6.4045066e-05
5.5954466e-05
4.8743389e-05
4.2340142e-05
3.6672376e-05
3.1668729e-05
2.7260273e-05
2.3381705e-05
1.9972277e-05
1.697645e-05
1.4344293e-05
1.2031639e-05
1.0000049e-05
8.2166109e-06
6.6536203e-06
5.2881953e-06
4.101831e-06
3.0800802e-06
2.2118162e-06
1.4903003e-06
9.0809737e-07
4.7349506e-07
1.6154395e-07
4.5585854e-08
0.00064040297
0.00061406117
0.00058748222
0.0005607093
0.0005337923
0.0005068064
0.00047984083
0.00045298857
0.00042634362
0.00040000162
0.00037405953
0.00034861436
0.00032376152
0.00029959344
0.00027619812
0.0002536577
0.00023204689
0.00021143173