/*--------------------------------*- C++ -*----------------------------------*\
  =========                 |
  \\      /  F ield         | OpenFOAM: The Open Source CFD Toolbox
   \\    /   O peration     | Website:  https://openfoam.org
    \\  /    A nd           | Version:  6
     \\/     M anipulation  |
\*---------------------------------------------------------------------------*/
FoamFile
{
    version     2.0;
    format      ascii;
    class       volVectorField;
    location    "243";
    object      UMean;
}
// * * * * * * * * * * * * * * * * * * * * * * * * * * * * * * * * * * * * * //

dimensions      [0 1 -1 0 0 0 0];

internalField   nonuniform List<vector> 
9200
(
(0.0016068718 0.00098581401 -6.0699465e-20)
(0.015562824 -0.0034264631 4.8018164e-20)
(0.041638852 -0.0080345568 -3.9686655e-20)
(0.07712437 -0.012623414 -6.2763251e-20)
(0.12014644 -0.016968321 1.9504209e-20)
(0.16945482 -0.020634414 3.4113641e-20)
(0.22395748 -0.023334204 -1.2761689e-20)
(0.28264574 -0.024924644 9.6525718e-21)
(0.34457665 -0.025349388 1.7736677e-20)
(0.4088415 -0.024615544 1.5676257e-21)
(0.4745426 -0.022782384 -2.2701554e-20)
(0.54078467 -0.01995034 2.1823141e-20)
(0.60667813 -0.016250056 -4.2601379e-20)
(0.67135221 -0.011831263 -2.237405e-20)
(0.73397608 -0.0068509813 6.252059e-21)
(0.7937854 -0.0014638299 -2.6667097e-20)
(0.85012746 0.0042010119 2.6792024e-20)
(0.90258339 0.010186314 2.3753518e-20)
(0.95078604 0.016621315 -2.6577114e-22)
(0.99208161 0.020176254 -1.6037395e-21)
(0.0059858399 -0.0018349088 -1.7487486e-20)
(0.029292322 -0.010467473 4.1286988e-20)
(0.065663496 -0.017100776 2.4111503e-20)
(0.11198054 -0.022142075 -1.1991711e-19)
(0.16606527 -0.025772333 -1.3134919e-20)
(0.22640866 -0.027789711 7.6344057e-20)
(0.29165147 -0.028108418 -3.6946827e-20)
(0.36050594 -0.02677286 -8.7947106e-21)
(0.4317446 -0.023897861 3.5979984e-20)
(0.50417739 -0.019649607 -4.5481312e-20)
(0.57664097 -0.014237812 -3.2052315e-20)
(0.64800631 -0.007905294 7.6082304e-20)
(0.71719922 -0.00091614975 4.0430932e-20)
(0.78322951 0.0064559177 -7.1876256e-20)
(0.84522434 0.013937562 1.5462524e-20)
(0.90246025 0.021260455 -3.8844999e-20)
(0.95440265 0.02817516 -1.4697548e-20)
(1.0008035 0.034523767 7.4991653e-20)
(1.0415699 0.039899277 3.198559e-20)
(1.0749614 0.041201969 -8.4980493e-20)
(0.011771158 -0.0045643206 3.7401713e-20)
(0.046746721 -0.016959436 2.350176e-21)
(0.095187593 -0.024874622 2.2653893e-20)
(0.15362048 -0.02946128 1.0132853e-21)
(0.21957222 -0.031391278 -4.1755987e-20)
(0.29125026 -0.030760068 1.9441764e-20)
(0.36699425 -0.027743943 1.3754308e-20)
(0.44520594 -0.022632471 -5.2459225e-20)
(0.52435488 -0.015764499 5.9920823e-20)
(0.60297477 -0.0075107746 1.5186213e-20)
(0.67967455 0.001733692 -5.7256492e-20)
(0.75316721 0.01156326 -1.9332829e-20)
(0.82230788 0.021578131 9.293397e-21)
(0.88613339 0.03140053 2.4704282e-20)
(0.94389646 0.040688507 -1.194757e-20)
(0.99508764 0.049144746 2.9311516e-20)
(1.039447 0.056530428 -2.1301326e-20)
(1.0769926 0.062712157 -7.3375592e-20)
(1.107897 0.067425702 -2.4287023e-20)
(1.1313467 0.068806673 5.040818e-20)
(0.019057255 -0.0069532423 2.4814533e-20)
(0.068039477 -0.022206894 5.219208e-20)
(0.13019067 -0.030317487 2.0425931e-20)
(0.20175867 -0.033304006 1.3624663e-20)
(0.27999414 -0.032415978 1.8034725e-20)
(0.36280514 -0.028115349 -4.953449e-20)
(0.44821485 -0.02090431 -2.6727253e-20)
(0.5343162 -0.011374318 0)
(0.61930618 -0.00013361815 1.525282e-20)
(0.70151133 0.012212602 -6.5637718e-21)
(0.77942493 0.025073514 -1.0264332e-19)
(0.8517551 0.037892184 -1.6390492e-20)
(0.91747159 0.050167424 6.8409374e-20)
(0.97584133 0.061472929 4.7803414e-22)
(1.0264463 0.071471144 -1.6459612e-21)
(1.0691791 0.079919845 2.2936539e-20)
(1.1042181 0.086678539 -5.3774455e-21)
(1.1320016 0.091736707 -6.3687062e-20)
(1.1531098 0.095072923 -4.7829421e-20)
(1.1675409 0.095740388 7.1223203e-20)
(0.02786878 -0.0087195575 -3.8509596e-21)
(0.093063514 -0.025459885 -4.8553566e-21)
(0.17027224 -0.032357716 5.7849067e-20)
(0.25557224 -0.032410983 1.9279517e-20)
(0.34597856 -0.02752888 -3.3309975e-20)
(0.4391104 -0.018609059 1.2377604e-20)
(0.53269945 -0.0065388568 2.7486283e-21)
(0.62458716 0.0077444063 3.5282262e-20)
(0.71279711 0.023339932 5.9219167e-21)
(0.79559265 0.039409857 -1.4034697e-20)
(0.87153513 0.055196142 6.3340272e-20)
(0.9395378 0.070044819 -6.0509101e-20)
(0.99890171 0.08342857 -1.380876e-19)
(1.0493252 0.094961206 -5.8189475e-21)
(1.0908846 0.10440185 8.6525029e-20)
(1.1239867 0.11164825 0)
(1.1493022 0.11672561 1.0624608e-20)
(1.1676949 0.11978934 -1.5952154e-20)
(1.1801069 0.12102349 -9.0344168e-21)
(1.1871125 0.12004012 2.1504602e-20)
(0.038140458 -0.0095586853 -5.1758824e-21)
(0.12146058 -0.025956842 4.4352472e-21)
(0.21464266 -0.029975227 -8.9520152e-21)
(0.3137406 -0.025672192 2.8954748e-20)
(0.41561012 -0.01568161 -3.0472739e-20)
(0.51763709 -0.0013942041 -1.7537993e-20)
(0.61734576 0.015877857 3.8063091e-20)
(0.71245324 0.034837655 4.766824e-21)
(0.80098106 0.054308649 -2.5905358e-20)
(0.88133719 0.073268664 7.2814573e-20)
(0.95237824 0.090869187 3.1688035e-22)
(1.0134455 0.10645676 -8.3905081e-20)
(1.0643647 0.11958538 0)
(1.1054075 0.13001391 4.0989219e-20)
(1.1372197 0.13768869 5.6805024e-21)
(1.1607269 0.14271378 -8.0112186e-20)
(1.1770302 0.14531685 -2.0247981e-20)
(1.1873094 0.14582679 -1.2807373e-20)
(1.1927175 0.14458624 -1.5165241e-20)
(1.194111 0.14153979 4.157005e-20)
(0.049704033 -0.0091644879 -1.7302915e-20)
(0.15260523 -0.022983612 -2.9897046e-21)
(0.26213261 -0.022291455 3.0635938e-20)
(0.37450504 -0.012238086 3.7633678e-20)
(0.4865413 0.0037871711 -2.0415329e-20)
(0.59550768 0.023872451 -7.1585479e-20)
(0.69887252 0.046279455 -2.9274438e-20)
(0.79442342 0.069386028 8.1871759e-20)
(0.88040729 0.09180998 9.1706649e-21)
(0.95561666 0.11244535 -2.5704513e-20)
(1.0194293 0.13047373 1.4003309e-20)
(1.0717992 0.14536874 -4.5091421e-21)
(1.1131981 0.15688316 0)
(1.1445162 0.1650161 2.8134162e-20)
(1.1669386 0.16996493 -8.1866833e-20)
(1.1818134 0.17206875 -3.2469116e-20)
(1.1905297 0.17175341 8.3386913e-20)
(1.1944198 0.16949199 -4.6318866e-21)
(1.1946788 0.16572742 3.5944584e-21)
(1.1922165 0.16058947 2.7980155e-20)
(0.062282243 -0.0072570795 -3.2539574e-20)
(0.18561083 -0.015945278 -8.3119265e-20)
(0.31123805 -0.0086669305 1.8607072e-21)
(0.43577197 0.0083769545 7.2100079e-20)
(0.55616593 0.031064425 6.4151132e-20)
(0.66974179 0.056982326 -7.3174536e-20)
(0.77412528 0.084019946 1.2484901e-22)
(0.86741802 0.11032335 8.8824512e-20)
(0.94834272 0.13443027 5.0512066e-20)
(1.0163049 0.15529541 -5.6206783e-20)
(1.0713813 0.1722769 -9.5515364e-20)
(1.1142439 0.18510614 -3.2634963e-21)
(1.1460333 0.19383519 4.3464331e-20)
(1.1682026 0.19876495 -6.7536663e-21)
(1.182357 0.20036472 -1.3120091e-20)
(1.1901088 0.19919358 2.003333e-20)
(1.1929634 0.19583419 4.5021163e-20)
(1.1922447 0.19084861 -4.483863e-20)
(1.1890547 0.18471769 -1.0484221e-19)
(1.1842132 0.17766137 2.5343331e-20)
(0.07545933 -0.0036134843 -3.5601959e-20)
(0.21929112 -0.0044419467 -1.752047e-19)
(0.36009619 0.01121633 8.4644205e-20)
(0.49511751 0.036233908 9.5216506e-20)
(0.62166148 0.0658448 5.9342347e-20)
(0.73733549 0.097215449 8.8872916e-21)
(0.84017738 0.12798022 -1.0929805e-19)
(0.92886021 0.15620617 0)
(1.0028115 0.180522 -7.1218451e-20)
(1.0622209 0.20011217 -1.5745189e-20)
(1.1079561 0.21465835 5.6384331e-20)
(1.1414123 0.2242587 1.1268051e-20)
(1.1643244 0.2293267 -4.6852665e-20)
(1.1785736 0.23048048 -5.0293666e-20)
(1.1860175 0.22843743 2.5006716e-20)
(1.1883591 0.22392584 4.6066647e-20)
(1.1870652 0.21762134 -5.7015246e-20)
(1.1833318 0.21011121 -1.0998952e-19)
(1.178088 0.20185971 -3.091474e-21)
(1.1719964 0.19312047 2.760092e-20)
(0.088664471 0.0019172724 -3.8728225e-21)
(0.25216481 0.011717318 8.9368377e-20)
(0.40652322 0.037359321 -1.5021919e-20)
(0.54987466 0.070994276 -8.7065318e-20)
(0.68012743 0.10737766 4.6412762e-20)
(0.79543224 0.14341052 4.9994892e-20)
(0.89449679 0.17665908 5.7061406e-21)
(0.97679219 0.20531749 -1.02336e-19)
(1.0426153 0.22830495 -2.5793479e-21)
(1.093021 0.24520517 5.1986284e-20)
(1.1296594 0.25614545 6.1472922e-21)
(1.15456 0.26165671 -2.0309213e-20)
(1.1699049 0.26252582 -7.7633899e-20)
(1.1778289 0.25965642 -6.3442571e-21)
(1.1802681 0.25395424 4.4513838e-20)
(1.1788675 0.2462454 3.7812939e-20)
(1.1749456 0.23722938 2.0113962e-20)
(1.1695049 0.2274617 -5.4377103e-20)
(1.1632744 0.21735136 1.2908544e-20)
(1.1567463 0.20715671 8.4151596e-20)
(-0.0013212772 0.0014511664 -8.9735069e-22)
(-0.0047600493 0.0031912995 1.9115036e-21)
(-0.010792375 0.0041051696 1.6484975e-21)
(-0.017682509 0.0044634935 -1.3511021e-21)
(-0.024499179 0.0044375172 -2.1729388e-21)
(-0.030813784 0.0041431513 2.305062e-21)
(-0.036353546 0.0036648766 -8.0877774e-21)
(-0.040943002 0.0030638135 -6.9833659e-21)
(-0.044486533 0.0023834604 1.2641163e-20)
(-0.046942621 0.0016545055 -1.0887212e-20)
(-0.048303677 0.00089835002 -2.0244866e-22)
(-0.048583226 0.00012966918 4.0652225e-21)
(-0.047807431 -0.00064165126 -6.6966147e-22)
(-0.046009308 -0.0014089793 2.480517e-20)
(-0.04322511 -0.0021675522 2.7860535e-22)
(-0.039493812 -0.0029130058 -4.4116848e-20)
(-0.034859506 -0.0036407558 8.1921408e-21)
(-0.02936314 -0.0043487428 2.5512441e-20)
(-0.02301495 -0.0050354893 -4.6767832e-20)
(-0.015877239 -0.0056520219 -2.9494611e-20)
(-0.0016800607 0.0042249555 -5.6366537e-21)
(-0.0053945138 0.009268779 9.9309093e-21)
(-0.011188091 0.011902443 -1.0452666e-20)
(-0.017492044 0.01291301 5.3707384e-21)
(-0.023473815 0.012800431 6.3925435e-21)
(-0.028755894 0.011904878 8.8156542e-22)
(-0.033101156 0.01047441 -2.6647391e-20)
(-0.036360001 0.0086884139 -2.269791e-21)
(-0.038454293 0.0066745402 2.2653888e-20)
(-0.039353854 0.0045228222 -5.6161533e-21)
(-0.039058147 0.0022960065 -2.4041213e-20)
(-0.037584702 3.7068206e-05 5.365431e-21)
(-0.034961503 -0.0022251229 2.4477212e-20)
(-0.031221669 -0.0044712976 1.1174632e-20)
(-0.026399677 -0.0066877129 2.3731028e-20)
(-0.02053183 -0.0088620147 -2.1258403e-20)
(-0.013666092 -0.010981362 -2.3153395e-20)
(-0.0058537148 -0.013039187 2.280918e-20)
(0.0029678799 -0.015020843 2.8430607e-20)
(0.012989537 -0.016758164 1.6579289e-20)
(-0.002328264 0.0066166136 -4.5773922e-21)
(-0.0064976738 0.014447333 -4.9701036e-21)
(-0.011756333 0.018496748 9.5353174e-23)
(-0.016858279 0.01998945 7.4313581e-23)
(-0.021160437 0.01970946 7.4149478e-21)
(-0.024383746 0.018196493 1.1689015e-20)
(-0.02636028 0.015844965 -4.2974807e-21)
(-0.026990733 0.012940243 -2.0987659e-20)
(-0.026231159 0.0096856733 7.2764364e-21)
(-0.024073925 0.0062248769 1.4210367e-20)
(-0.020533011 0.0026580278 6.541476e-21)
(-0.015634912 -0.00094628796 1.962912e-20)
(-0.0094126738 -0.0045421988 1.8752075e-21)
(-0.0019015734 -0.0080995455 -3.6344417e-20)
(0.0068646643 -0.011597222 1.497175e-21)
(0.016852335 -0.015016646 -2.3298384e-20)
(0.028004777 -0.018340416 -2.6418033e-20)
(0.040247297 -0.021559832 4.9085611e-20)
(0.053764127 -0.024621617 2.7179945e-20)
(0.069241112 -0.027160867 4.2812895e-22)
(-0.003143609 0.0084156925 -5.6715045e-21)
(-0.0077874521 0.018226979 -1.0808249e-20)
(-0.012139448 0.023216234 4.4641045e-21)
(-0.015395724 0.024926349 4.600483e-21)
(-0.017174912 0.024356588 2.1002548e-21)
(-0.017335924 0.022207588 8.4699332e-21)
(-0.015809211 0.018992984 1.0530765e-20)
(-0.012567954 0.015084638 -1.5704642e-21)
(-0.0076186214 0.010748122 -1.2677949e-20)
(-0.00098816499 0.0061714479 -3.1870365e-20)
(0.0072856445 0.0014859457 1.4779214e-22)
(0.017159325 -0.0032184173 4.4057876e-20)
(0.028588059 -0.0078819481 -1.9585138e-20)
(0.041527252 -0.012465831 -1.3203616e-20)
(0.055936645 -0.016944073 3.3740683e-22)
(0.071778602 -0.021295865 3.459129e-20)
(0.088981934 -0.025506645 -1.6222086e-20)
(0.10743047 -0.029575282 -5.6491122e-20)
(0.12743632 -0.033385061 4.8108314e-20)
(0.15039197 -0.036253787 3.4868228e-20)
(-0.0039624208 0.0094784457 -4.9427346e-22)
(-0.0088780501 0.020253962 -1.3173587e-20)
(-0.011837759 0.025576093 -3.7754268e-20)
(-0.012554609 0.027165298 -6.8206996e-21)
(-0.010957929 0.026152713 -3.4037621e-21)
(-0.0070740464 0.023351945 7.0828318e-21)
(-0.00095520356 0.019361665 -5.3347928e-21)
(0.0073336156 0.014615304 -9.8022451e-21)
(0.017719839 0.0094230448 2.3882393e-20)
(0.030128366 0.0040048837 5.3880038e-21)
(0.044485761 -0.0014850518 -2.7665279e-20)
(0.060720192 -0.0069410486 1.1801129e-20)
(0.07876187 -0.012293018 0)
(0.098543583 -0.017496664 1.2926951e-20)
(0.12000377 -0.022524669 -1.0343892e-20)
(0.1430857 -0.02735917 -1.5376599e-20)
(0.16769047 -0.031998722 -1.1036864e-21)
(0.19363825 -0.036470506 -2.5557208e-21)
(0.22132889 -0.040592053 4.7918029e-20)
(0.2530107 -0.043222531 -1.170682e-20)
(-0.0045975358 0.009737158 -7.7657206e-21)
(-0.00931382 0.020346528 2.6280666e-20)
(-0.01024237 0.025318837 -1.1659712e-20)
(-0.0076449411 0.026408862 -2.9641254e-20)
(-0.0017872596 0.024791487 -2.9164084e-20)
(0.0071178367 0.021341169 -1.6199388e-20)
(0.018878924 0.016703088 -8.7198246e-22)
(0.033322775 0.011343132 6.051633e-21)
(0.050295789 0.0055954115 2.1123563e-20)
(0.069660257 -0.00030221582 7.913609e-21)
(0.091289355 -0.0061830051 -7.6579996e-21)
(0.11506459 -0.011932592 -1.9647671e-21)
(0.14087202 -0.017475733 -4.08507e-20)
(0.1685996 -0.022766579 -1.3527986e-20)
(0.19813892 -0.027780383 2.0282857e-20)
(0.2293864 -0.032507581 -2.2541764e-20)
(0.26219219 -0.036970455 -9.512622e-21)
(0.29628775 -0.041253224 3.1702138e-20)
(0.33208662 -0.04514292 5.2600519e-20)
(0.37274441 -0.046928118 3.5911095e-21)
(-0.0048541752 0.0091968018 1.7245452e-20)
(-0.0086020027 0.018497381 1.49063e-20)
(-0.0066707677 0.022429527 5.4047227e-20)
(0.00013134179 0.022650289 2.5143945e-20)
(0.011196093 0.020292795 1.9819963e-22)
(0.026114046 0.016239613 -4.2516867e-20)
(0.044542401 0.011142428 -2.60232e-20)
(0.066186861 0.005469778 1.1226177e-20)
(0.090794611 -0.00044298238 1.5421578e-20)
(0.11814397 -0.0063572825 -1.389263e-20)
(0.14803315 -0.012106369 -4.7164984e-20)
(0.18027126 -0.017577121 3.1689308e-20)
(0.21467071 -0.022696988 2.1160868e-20)
(0.25104155 -0.027425087 -2.9299602e-20)
(0.28919132 -0.031745425 1.2470108e-20)
(0.32892883 -0.035663606 2.5575625e-20)
(0.37001768 -0.03923569 8.6283936e-21)
(0.41207392 -0.0426341 -1.274664e-20)
(0.45543549 -0.045693603 -1.4485338e-20)
(0.50409366 -0.046112862 7.2272917e-21)
(-0.0045408387 0.007923156 1.1574495e-20)
(-0.0062396189 0.014856786 -2.5028945e-20)
(-0.00040230807 0.017125395 8.5063338e-21)
(0.011640244 0.016173363 3.5719373e-20)
(0.028944415 0.013012692 5.4957701e-20)
(0.05090091 0.008484153 2.154635e-20)
(0.077006025 0.0032075728 -6.2141159e-21)
(0.10682583 -0.0023779816 -1.3063272e-20)
(0.13998747 -0.007960206 -6.6550519e-21)
(0.17615939 -0.013319165 3.6490056e-20)
(0.21503277 -0.018304309 -4.9590681e-21)
(0.25630732 -0.022817552 -1.7825001e-20)
(0.29968034 -0.026801336 -2.081609e-20)
(0.34483882 -0.030231179 -5.0405744e-20)
(0.39145843 -0.033110964 2.4533615e-20)
(0.43921149 -0.035472828 -1.4883744e-20)
(0.4877346 -0.037419979 2.7568668e-20)
(0.5365137 -0.039248364 2.2284948e-20)
(0.58574317 -0.040963703 -8.8713204e-20)
(0.64005711 -0.039836709 2.3837695e-22)
(-0.00347637 0.0060288735 2.2647951e-20)
(-0.0017391596 0.0097100282 -2.762133e-20)
(0.0092758649 0.0098384727 -4.6983411e-20)
(0.027747711 0.0075455497 -2.8658396e-20)
(0.052412467 0.0036507439 -2.1598989e-21)
(0.08245625 -0.0010946629 1.3874163e-20)
(0.11720083 -0.0061414727 -3.0107153e-21)
(0.1560534 -0.011111652 1.9161911e-20)
(0.19849238 -0.015743091 9.3680537e-21)
(0.24404033 -0.01985788 -1.2059473e-20)
(0.29223911 -0.023342574 9.5460733e-21)
(0.34263194 -0.026133359 -2.5372389e-20)
(0.39475059 -0.028205419 8.784975e-21)
(0.44810702 -0.029566322 1.7792768e-20)
(0.50219234 -0.030252039 -2.9511892e-21)
(0.55648686 -0.030328865 1.8656815e-21)
(0.61044443 -0.029947866 -5.3630171e-22)
(0.66339819 -0.029512452 2.0836026e-20)
(0.71536471 -0.029223352 3.9975272e-21)
(0.77138464 -0.026431925 -1.8953033e-21)
(-0.0014907195 0.0036621923 2.4667182e-20)
(0.0053516794 0.0034630344 5.999025e-20)
(0.023015155 0.0012133852 -5.116207e-20)
(0.049223498 -0.0023628945 -1.042647e-20)
(0.082405909 -0.0067108939 2.1305219e-20)
(0.12153962 -0.011215649 2.2497741e-21)
(0.16575578 -0.01543851 -3.1334397e-20)
(0.21427521 -0.019098971 7.3643127e-21)
(0.26639084 -0.022018193 7.4835597e-21)
(0.32143577 -0.024091243 -2.7730793e-20)
(0.37875581 -0.02527148 1.3628732e-21)
(0.43769223 -0.02555784 -3.9398749e-20)
(0.49757232 -0.024984467 -3.8536165e-20)
(0.55770615 -0.023612393 6.9671404e-20)
(0.61738938 -0.021522239 5.8961007e-21)
(0.67591009 -0.018813307 -1.6065948e-20)
(0.7325339 -0.015644348 2.0432946e-20)
(0.78643032 -0.012319777 -9.5987459e-22)
(0.83713968 -0.0088632096 2.087834e-20)
(0.88835851 -0.0037497768 -2.1097248e-20)
(-0.0073867541 -0.0059357181 6.1988012e-20)
(0.0025775058 -0.0064577203 1.6469195e-20)
(0.013961738 -0.0068759428 -3.6697886e-20)
(0.026410305 -0.0071201182 1.768662e-20)
(0.039646451 -0.0072737555 0)
(0.053604695 -0.0073658017 0)
(0.068221414 -0.0073992028 -2.3723956e-20)
(0.083412419 -0.0073819675 -1.6927473e-20)
(0.099102403 -0.0073238786 1.9715948e-20)
(0.11522747 -0.0072320887 1.8611292e-20)
(0.13172875 -0.0071120604 1.0416894e-21)
(0.1485508 -0.0069685997 -1.0405779e-20)
(0.16564196 -0.0068058957 8.5426391e-21)
(0.18295396 -0.0066275012 1.8254635e-20)
(0.20044138 -0.0064364574 -5.3848693e-21)
(0.21806121 -0.0062354035 -1.0091415e-20)
(0.23577269 -0.0060266429 -4.2631029e-21)
(0.25353713 -0.0058121949 -4.2899261e-21)
(0.27131776 -0.0055938415 6.9995198e-22)
(0.2890797 -0.0053731636 1.2135558e-21)
(0.30678993 -0.0051515691 2.5776962e-21)
(0.32441726 -0.0049303137 6.4990625e-21)
(0.34193239 -0.0047105174 1.5312266e-22)
(0.35930794 -0.0044931764 -3.3572665e-21)
(0.37651847 -0.0042791723 1.3173379e-22)
(0.39354056 -0.0040692798 -5.5692453e-22)
(0.41035276 -0.003864172 1.1951737e-21)
(0.4269357 -0.0036644261 9.7736833e-22)
(0.443272 -0.0034705287 -1.2918598e-21)
(0.45934635 -0.0032828803 -1.0219877e-22)
(0.47514541 -0.0031018009 -3.5577213e-23)
(0.49065781 -0.0029275356 -3.3126211e-22)
(0.50587409 -0.0027602604 -4.0977378e-22)
(0.52078664 -0.0026000886 8.7379048e-23)
(0.53538963 -0.0024470774 -1.2825729e-22)
(0.54967899 -0.002301235 -1.9947144e-22)
(0.56365226 -0.0021625273 2.2707802e-22)
(0.57730868 -0.0020308861 2.5769219e-22)
(0.59064894 -0.0019062178 -3.0494046e-23)
(0.60367567 -0.0017884083 -1.6271673e-22)
(0.61639221 -0.0016773515 1.7201283e-23)
(0.62880669 -0.0015729052 -2.622164e-23)
(0.64092015 -0.0014751054 8.0780224e-23)
(0.6527644 -0.001383584 -1.2849089e-23)
(0.66429086 -0.0012996006 -1.3238068e-22)
(0.67570547 -0.0012199648 4.8413027e-24)
(0.6864969 -0.001156752 5.7253644e-24)
(0.69827658 -0.0010777149 -5.1332496e-24)
(0.7066441 -0.0010910481 2.6186895e-23)
(0.72401331 -0.00092012065 3.7076356e-22)
(0.022705829 -0.017473379 -1.3855242e-20)
(0.031708108 -0.019057521 -6.6537881e-20)
(0.042609784 -0.02028641 -3.2385789e-20)
(0.054544896 -0.020982354 4.0361581e-20)
(0.067121511 -0.021423611 1.5325736e-20)
(0.080354291 -0.021694174 -1.9166727e-20)
(0.09421174 -0.021794901 5.1352689e-21)
(0.10861266 -0.02174785 2.6149538e-20)
(0.12348919 -0.021582147 -1.5257136e-22)
(0.13878699 -0.02131833 -7.9376241e-21)
(0.15445431 -0.020971805 -1.2918979e-20)
(0.17044107 -0.02055634 -8.8329174e-21)
(0.18670012 -0.020084032 1.7908564e-20)
(0.20318701 -0.019565148 9.5182345e-21)
(0.21985938 -0.0190085 -1.6254036e-20)
(0.23667675 -0.018421772 -6.0107419e-21)
(0.25360037 -0.017811697 3.1177529e-21)
(0.27059319 -0.017184204 8.1557643e-21)
(0.28761979 -0.016544542 6.9357606e-21)
(0.30464636 -0.015897387 -7.0571945e-21)
(0.32164071 -0.015246917 -3.351409e-21)
(0.33857234 -0.014596869 1.5428584e-21)
(0.35541248 -0.013950586 6.283754e-22)
(0.37213412 -0.013311048 1.2397473e-21)
(0.38871211 -0.012680899 2.3157947e-22)
(0.40512317 -0.012062467 -3.6739293e-22)
(0.42134596 -0.011457782 -7.4483488e-22)
(0.43736107 -0.010868586 1.0573703e-21)
(0.45315106 -0.010296355 8.6387155e-22)
(0.46870045 -0.009742305 -2.5741008e-22)
(0.48399568 -0.0092074156 5.904421e-22)
(0.49902509 -0.0086924412 -2.25003e-22)
(0.51377891 -0.0081979303 -4.0720323e-22)
(0.52824914 -0.0077242438 -6.1973736e-22)
(0.54242953 -0.0072715751 4.1062997e-22)
(0.55631555 -0.00683997 -1.0058483e-22)
(0.56990425 -0.006429349 2.141382e-22)
(0.58319434 -0.0060395285 -4.6315612e-22)
(0.596186 -0.0056702501 4.391627e-22)
(0.60888128 -0.0053211922 6.1061509e-23)
(0.62128297 -0.0049920576 -6.2931728e-23)
(0.63339859 -0.0046824393 2.1029433e-22)
(0.64522867 -0.0043924639 2.8200334e-22)
(0.65680419 -0.0041210464 2.1307458e-22)
(0.66807666 -0.0038719687 2.2616105e-22)
(0.67924911 -0.0036357154 -1.8412438e-23)
(0.68981634 -0.0034483257 1.154712e-22)
(0.70136742 -0.0032136813 1.0184032e-22)
(0.70956481 -0.0032538487 -2.0330438e-22)
(0.72662973 -0.0027463262 -1.2144444e-23)
(0.08120075 -0.027965708 1.0205178e-20)
(0.088298109 -0.030621719 3.8072478e-21)
(0.098133712 -0.032606555 -1.3640572e-20)
(0.10900933 -0.033675779 -1.6046617e-21)
(0.12024888 -0.034366309 1.5970697e-20)
(0.13202334 -0.034812114 -1.5523094e-20)
(0.14437204 -0.03499273 -3.1283115e-20)
(0.15721589 -0.034938451 1.5274866e-20)
(0.17049814 -0.034697001 1.9000017e-20)
(0.18418221 -0.034300183 -1.2056932e-20)
(0.19822926 -0.033770849 1.0421635e-21)
(0.21259841 -0.033129984 8.4426777e-21)
(0.22725037 -0.032396389 -1.5708892e-20)
(0.24214726 -0.031586087 3.697588e-21)
(0.25725199 -0.030712893 7.7730434e-21)
(0.2725283 -0.029788959 -4.6706355e-22)
(0.28794086 -0.028825027 -4.1707183e-23)
(0.30345536 -0.027830631 -7.6145258e-21)
(0.31903856 -0.026814276 4.3744318e-21)
(0.33465838 -0.025783587 8.642633e-21)
(0.35028402 -0.024745419 -3.8898254e-21)
(0.36588603 -0.02370594 -2.175122e-21)
(0.38143643 -0.022670694 8.966859e-22)
(0.3969088 -0.021644644 -1.7688277e-21)
(0.41227835 -0.020632215 1.3137337e-21)
(0.42752203 -0.019637318 6.9533181e-22)
(0.44261854 -0.018663373 1.7730847e-21)
(0.45754837 -0.017713336 -2.1510108e-21)
(0.47229387 -0.016789718 2.4410478e-21)
(0.48683921 -0.015894609 5.8708564e-22)
(0.50117038 -0.015029701 5.9375573e-22)
(0.51527518 -0.014196319 3.0318243e-22)
(0.52914318 -0.013395442 1.0029421e-21)
(0.54276566 -0.012627742 -1.5401662e-21)
(0.55613558 -0.011893609 4.2756621e-22)
(0.56924753 -0.011193189 2.0991491e-22)
(0.58209766 -0.01052642 -7.6109082e-23)
(0.59468372 -0.0098930623 2.2146667e-23)
(0.60700488 -0.0092927545 -3.982293e-22)
(0.61906217 -0.008725026 2.1957871e-22)
(0.6308573 -0.0081894459 -3.0281404e-23)
(0.64239672 -0.0076853975 5.2801042e-22)
(0.65367996 -0.0072131477 -2.4522596e-22)
(0.66473649 -0.0067709506 3.8417928e-23)
(0.67551795 -0.006365109 7.1621273e-23)
(0.68622194 -0.0059799599 -9.1554639e-23)
(0.6963549 -0.0056749069 -1.5359511e-22)
(0.70746307 -0.0052919423 5.0131052e-22)
(0.71533025 -0.0053591948 1.8065195e-22)
(0.73180506 -0.0045308955 -8.5040653e-22)
(0.16523229 -0.036676576 1.7915065e-21)
(0.16950841 -0.040388068 -1.1790673e-20)
(0.17755398 -0.043048256 6.5976718e-21)
(0.18676096 -0.044399433 -1.401358e-20)
(0.19596735 -0.045304763 -2.0714337e-21)
(0.2055471 -0.045937953 9.9074544e-21)
(0.21565855 -0.046234166 -1.0817349e-20)
(0.22622142 -0.046222589 1.1586781e-21)
(0.23718705 -0.045967007 1.333113e-20)
(0.24854173 -0.045507856 3.7910709e-21)
(0.26026348 -0.044872234 -6.3630745e-21)
(0.2723223 -0.044085714 -3.1912003e-21)
(0.2846879 -0.043171993 -5.564627e-21)
(0.29733013 -0.04215155 -6.7592073e-21)
(0.31021801 -0.041042199 2.8191584e-21)
(0.32332006 -0.039859794 3.3151228e-22)
(0.3366047 -0.038618551 1.5546552e-21)
(0.35004063 -0.037331238 -3.3823062e-21)
(0.36359691 -0.036009373 -4.5536991e-21)
(0.37724329 -0.034663381 2.5076584e-21)
(0.39095033 -0.033302719 3.4907799e-21)
(0.40468959 -0.031935957 -1.8157677e-21)
(0.41843383 -0.030570852 1.676768e-21)
(0.43215708 -0.029214391 -5.0150635e-22)
(0.44583483 -0.027872836 -4.2717154e-21)
(0.45944405 -0.02655175 -3.0581979e-21)
(0.47296333 -0.02525603 -2.8553687e-22)
(0.48637288 -0.023989929 3.2103283e-22)
(0.49965461 -0.02275709 -2.2058545e-21)
(0.51279211 -0.021560567 -1.0517645e-21)
(0.52577069 -0.020402867 2.1679874e-22)
(0.53857732 -0.019285979 -1.3842761e-21)
(0.55120064 -0.018211416 -5.7943828e-23)
(0.56363093 -0.017180257 -5.0367149e-22)
(0.57586002 -0.01619319 -4.4164987e-22)
(0.58788134 -0.015250558 -6.7768046e-22)
(0.59968978 -0.014352411 -1.0405309e-21)
(0.61128177 -0.013498553 -1.5379893e-23)
(0.62265515 -0.012688608 -3.5285294e-24)
(0.63380953 -0.01192205 -6.094313e-22)
(0.64474525 -0.0111984 -2.2809851e-23)
(0.65546723 -0.010516917 -4.1605291e-22)
(0.6659737 -0.0098780816 -6.0756259e-22)
(0.67629206 -0.0092795782 4.8495918e-22)
(0.68637423 -0.008730206 1.3777575e-23)
(0.6964101 -0.0082084831 2.3916713e-22)
(0.70592291 -0.0077960816 -1.7533926e-22)
(0.71639729 -0.0072766285 -3.4051929e-22)
(0.72379205 -0.0073710075 -1.8189402e-23)
(0.73941948 -0.0062477359 4.8381298e-22)
(0.27082821 -0.042811746 -2.2790955e-20)
(0.27137463 -0.047552925 4.9779807e-20)
(0.27675499 -0.050796549 1.0704382e-20)
(0.28358906 -0.052364238 -1.6620072e-20)
(0.29005659 -0.053486269 -2.4630561e-21)
(0.29672065 -0.054352989 2.3881537e-21)
(0.30390611 -0.05483844 -2.067942e-21)
(0.31153299 -0.054960349 -4.8583302e-21)
(0.31954935 -0.054791535 -4.1565163e-21)
(0.32796315 -0.054377781 -1.2596499e-20)
(0.33677078 -0.053748009 1.8848083e-20)
(0.34595237 -0.052929693 6.9825691e-21)
(0.35548522 -0.051949265 -1.7121744e-20)
(0.36534582 -0.050830283 9.984262e-21)
(0.37550846 -0.049593625 7.9833836e-21)
(0.38594558 -0.048258168 -4.060055e-22)
(0.39662858 -0.046841125 -2.8208905e-21)
(0.40752838 -0.045358224 -4.2517944e-21)
(0.41861572 -0.043823851 -1.5872183e-21)
(0.42986152 -0.042251183 -1.4029403e-21)
(0.44123713 -0.040652296 -3.3522007e-21)
(0.45271463 -0.039038231 0)
(0.46426703 -0.037419057 -1.4876263e-21)
(0.47586839 -0.035803905 3.9862714e-21)
(0.48749403 -0.034201007 5.6792197e-21)
(0.49912062 -0.032617724 -9.1018357e-22)
(0.51072627 -0.031060569 -3.2765869e-21)
(0.52229058 -0.029535244 3.4434231e-21)
(0.53379473 -0.028046662 5.1800592e-23)
(0.54522146 -0.026598992 3.7626499e-21)
(0.55655508 -0.025195691 -5.0867207e-22)
(0.56778152 -0.023839556 1.7980929e-21)
(0.57888823 -0.022532767 -9.0287662e-22)
(0.58986423 -0.021276944 4.0784728e-22)
(0.60070003 -0.020073201 -5.3421384e-22)
(0.61138762 -0.018922206 5.836869e-22)
(0.62192044 -0.017824244 5.3379139e-22)
(0.6322934 -0.016779282 4.485383e-22)
(0.64250274 -0.015787048 -1.1065867e-21)
(0.65254649 -0.01484707 7.9150433e-22)
(0.66242334 -0.01395893 -4.1675313e-22)
(0.67213649 -0.013121868 -1.351308e-21)
(0.6816827 -0.012336663 1.7249468e-21)
(0.69108688 -0.011600547 -5.5471326e-23)
(0.70030149 -0.010924765 -1.960935e-22)
(0.70950682 -0.010282467 -7.0967738e-24)
(0.71824748 -0.0097760678 -1.9139954e-22)
(0.72793023 -0.0091356651 -5.8572722e-22)
(0.73473562 -0.0092569613 7.9106542e-22)
(0.74929878 -0.0078728167 -4.9742179e-23)
(0.3930073 -0.045420476 -1.9117083e-20)
(0.3889608 -0.051221761 1.3215755e-20)
(0.39070461 -0.055000047 3.771533e-21)
(0.39437999 -0.056809764 -8.0805561e-21)
(0.39743616 -0.058230998 1.2672704e-20)
(0.40053134 -0.059432329 8.1723174e-21)
(0.40418177 -0.060230979 -1.2870952e-20)
(0.40832475 -0.060629935 -6.3150525e-21)
(0.41288961 -0.060698215 1.3165949e-20)
(0.41789392 -0.060480723 -1.6435613e-20)
(0.42334978 -0.06000698 -1.4464876e-20)
(0.42924539 -0.059304899 1.518123e-20)
(0.43556204 -0.05840183 6.998724e-21)
(0.44227964 -0.057323247 -5.1119373e-21)
(0.44937534 -0.056092528 -1.3921334e-21)
(0.4568235 -0.054731259 -3.6417103e-21)
(0.46459673 -0.053259503 4.8653954e-21)
(0.47266667 -0.051695932 3.6861069e-21)
(0.48100439 -0.050057898 -3.1377181e-21)
(0.48958085 -0.048361498 3.1251158e-21)
(0.49836723 -0.04662163 2.9424288e-21)
(0.50733524 -0.04485204 -3.3652293e-21)
(0.51645733 -0.04306535 3.6744647e-22)
(0.52570694 -0.041273082 -3.1944789e-21)
(0.53505862 -0.039485683 8.0842448e-21)
(0.54448817 -0.037712543 6.4940302e-21)
(0.55397277 -0.035962023 1.0263699e-21)
(0.56349099 -0.034241485 -1.8343056e-21)
(0.57302289 -0.032557325 4.2313526e-21)
(0.58255003 -0.030915018 8.0032752e-21)
(0.59205548 -0.029319161 2.3930373e-21)
(0.60152383 -0.027773533 3.6819225e-21)
(0.61094116 -0.026281152 2.1319765e-21)
(0.62029503 -0.024844339 8.4675849e-22)
(0.62957447 -0.023464788 -2.4737001e-22)
(0.63876991 -0.022143638 3.0639098e-21)
(0.6478732 -0.020881553 6.9041856e-22)
(0.65687763 -0.019678793 3.173664e-22)
(0.66577778 -0.018535322 5.6970377e-23)
(0.67456998 -0.017450844 1.1936327e-21)
(0.68325123 -0.01642512 4.2791255e-23)
(0.69182294 -0.015457481 5.6466513e-22)
(0.70028032 -0.014549099 -1.265674e-22)
(0.70864564 -0.013696879 -3.8769422e-22)
(0.71687217 -0.012914437 -1.9512664e-22)
(0.72512915 -0.012170085 -5.352015e-22)
(0.73298653 -0.011585123 2.2916958e-22)
(0.74175972 -0.010841935 -1.580487e-22)
(0.74788959 -0.010989698 -4.5218957e-22)
(0.76122055 -0.009384803 2.784251e-22)
(0.52567144 -0.043581784 3.4631311e-21)
(0.51638756 -0.050484139 -1.9309177e-20)
(0.51355856 -0.054804711 -2.559775e-21)
(0.51330011 -0.057043739 5.6829105e-21)
(0.51241544 -0.058987561 3.5395098e-21)
(0.51146753 -0.060712648 5.3806622e-22)
(0.51113254 -0.062010182 7.0916405e-21)
(0.51140778 -0.062884157 8.1067271e-21)
(0.51220104 -0.063389554 1.0086726e-20)
(0.51351688 -0.063561616 -1.1806145e-20)
(0.51537277 -0.063428829 -2.2811991e-20)
(0.51776196 -0.063019636 -4.4583871e-21)
(0.52066604 -0.062361867 1.6733536e-20)
(0.52406409 -0.061482516 1.3352467e-20)
(0.5279328 -0.060407503 -5.7610372e-21)
(0.53224602 -0.059161416 9.4641355e-22)
(0.53697552 -0.057767531 -4.14305e-21)
(0.5420919 -0.05624786 3.0203164e-21)
(0.54756511 -0.054623148 -2.9323624e-22)
(0.55336491 -0.052912843 -1.9601137e-21)
(0.5594612 -0.051135098 8.4428902e-21)
(0.56582437 -0.049306772 -4.7356458e-22)
(0.57242552 -0.047443435 5.8591799e-22)
(0.57923671 -0.045559368 -4.7843923e-22)
(0.58623108 -0.043667576 -4.4948496e-21)
(0.59338301 -0.041779803 4.3878035e-21)
(0.60066821 -0.039906555 1.8493537e-21)
(0.6080638 -0.038057132 -3.4328878e-21)
(0.61554834 -0.036239669 -4.0832815e-21)