/*--------------------------------*- C++ -*----------------------------------*\
  =========                 |
  \\      /  F ield         | OpenFOAM: The Open Source CFD Toolbox
   \\    /   O peration     | Website:  https://openfoam.org
    \\  /    A nd           | Version:  6
     \\/     M anipulation  |
\*---------------------------------------------------------------------------*/
FoamFile
{
    version     2.0;
    format      ascii;
    class       volScalarField;
    location    "301";
    object      pMean;
}
// * * * * * * * * * * * * * * * * * * * * * * * * * * * * * * * * * * * * * //

dimensions      [0 2 -2 0 0 0 0];

internalField   nonuniform List<scalar> 
9200
(
-0.38857334
-0.37682729
-0.36635374
-0.35708626
-0.34802566
-0.33917916
-0.33062809
-0.32233813
-0.31423961
-0.3062593
-0.29832391
-0.29036496
-0.28232585
-0.27416899
-0.26588613
-0.25751573
-0.24913733
-0.24084118
-0.23364048
-0.23177043
-0.40676476
-0.39256876
-0.38015572
-0.36936335
-0.35891894
-0.34879839
-0.33907341
-0.3296794
-0.32051541
-0.31148309
-0.30249048
-0.29345773
-0.28432457
-0.27505605
-0.26564776
-0.25612937
-0.2465355
-0.23687009
-0.22781076
-0.22150701
-0.4253231
-0.40866229
-0.39436086
-0.38211589
-0.37034222
-0.3589664
-0.34803932
-0.33745918
-0.32709277
-0.31682145
-0.30654459
-0.29618493
-0.28569504
-0.27506004
-0.26429692
-0.25344977
-0.24256215
-0.23164665
-0.22110179
-0.21204167
-0.44380084
-0.42470113
-0.40857996
-0.39494398
-0.38185882
-0.36918585
-0.35694818
-0.34500744
-0.33320719
-0.32142488
-0.30957262
-0.29759969
-0.28549509
-0.2732847
-0.26102413
-0.24878817
-0.23664693
-0.22464118
-0.21303897
-0.20258478
-0.46155407
-0.44012509
-0.42230337
-0.40735266
-0.39296282
-0.37892015
-0.36522103
-0.35170244
-0.33820632
-0.32463392
-0.31093998
-0.29712815
-0.28324608
-0.26937497
-0.25561575
-0.2420748
-0.22884376
-0.21598092
-0.20367489
-0.19243753
-0.47774518
-0.45420177
-0.43485687
-0.41867956
-0.40297574
-0.38745795
-0.37210966
-0.35677001
-0.3413142
-0.32570376
-0.3099684
-0.2941899
-0.27848704
-0.2629972
-0.24785814
-0.2331932
-0.21909638
-0.20562143
-0.19289393
-0.18125435
-0.49135766
-0.46603293
-0.44540327
-0.42809821
-0.41105836
-0.39393972
-0.376742
-0.35934816
-0.34171126
-0.32389202
-0.30602228
-0.28827441
-0.27083623
-0.25388756
-0.23758206
-0.22203665
-0.20732447
-0.1934731
-0.18054812
-0.1687528
-0.50121887
-0.47457885
-0.45297598
-0.43466617
-0.41627633
-0.39744127
-0.37822064
-0.35859381
-0.33863976
-0.31855226
-0.29858126
-0.27898805
-0.26001383
-0.24185702
-0.22466117
-0.20851313
-0.19344613
-0.17944774
-0.1665248
-0.15476479
-0.50598013
-0.4785558
-0.45627944
-0.43703865
-0.41724705
-0.39658144
-0.37522188
-0.35330084
-0.33106146
-0.30884452
-0.28700998
-0.26588438
-0.24573101
-0.22673562
-0.20900573
-0.1925801
-0.17744185
-0.16353488
-0.1508114
-0.13925953
-0.50428905
-0.47654173
-0.45375964
-0.43354511
-0.41224689
-0.38966786
-0.36617313
-0.3420924
-0.31784469
-0.293899
-0.27068673
-0.24855367
-0.2277426
-0.20839419
-0.1905603
-0.17422369
-0.15931844
-0.1457508
-0.13342566
-0.12224446
-0.2722569
-0.27675424
-0.27898697
-0.27949445
-0.27902222
-0.27774691
-0.27575778
-0.27314672
-0.2699876
-0.26633681
-0.26224018
-0.25773696
-0.25286189
-0.24764668
-0.24212122
-0.23631608
-0.23026388
-0.22398686
-0.21748545
-0.21084837
-0.27510281
-0.27917149
-0.28109071
-0.2813769
-0.28072048
-0.27928939
-0.27717085
-0.27445271
-0.27120504
-0.26748121
-0.26332451
-0.25877196
-0.2538563
-0.24860715
-0.24305169
-0.23721936
-0.23115019
-0.22486478
-0.21825558
-0.21129619
-0.28064832
-0.28388075
-0.28519001
-0.28504346
-0.28402612
-0.28229039
-0.2799196
-0.27699369
-0.27357533
-0.26971196
-0.26544177
-0.2607973
-0.25580732
-0.25049739
-0.2448897
-0.2390106
-0.23291137
-0.22661159
-0.21981034
-0.21224343
-0.28863558
-0.29067385
-0.29110186
-0.2903193
-0.2887657
-0.28657367
-0.28382202
-0.28058
-0.27690005
-0.27282127
-0.26837461
-0.26358613
-0.25847879
-0.25307222
-0.24738158
-0.24142779
-0.23527367
-0.22894369
-0.22189116
-0.21347621
-0.29873993
-0.29928956
-0.29859844
-0.29698943
-0.29472883
-0.29192838
-0.28866306
-0.28498991
-0.2809493
-0.27657054
-0.2718758
-0.26688246
-0.26160559
-0.25605762
-0.25024541
-0.24418132
-0.23793562
-0.23154623
-0.22421087
-0.21477244
-0.31062485
-0.30945697
-0.30744564
-0.30483687
-0.30170779
-0.2981509
-0.29423954
-0.29001887
-0.28551654
-0.28074962
-0.27572896
-0.27046222
-0.26495531
-0.25921195
-0.25322973
-0.24700964
-0.24062156
-0.23412284
-0.226486
-0.21592148
-0.32399134
-0.32093426
-0.31743783
-0.31367794
-0.30953518
-0.30508628
-0.3004069
-0.2955299
-0.29046763
-0.28522413
-0.27979825
-0.27418597
-0.26838226
-0.26238112
-0.25617103
-0.24974132
-0.24315464
-0.23649089
-0.22856139
-0.21688213
-0.33860731
-0.33353253
-0.32842093
-0.32338771
-0.31811415
-0.31266439
-0.3071167
-0.30149111
-0.29578466
-0.28998648
-0.28408067
-0.27804858
-0.27187137
-0.26553089
-0.25900606
-0.25227769
-0.24540602
-0.23851696
-0.23037918
-0.21781487
-0.35430692
-0.34710733
-0.34027301
-0.33386848
-0.32736952
-0.32082655
-0.31432254
-0.30786423
-0.30143068
-0.29499311
-0.28851745
-0.28196657
-0.27530259
-0.26848734
-0.26147776
-0.25422797
-0.24676367
-0.23919372
-0.23028515
-0.21656827
-0.37098126
-0.36153977
-0.35286968
-0.34498973
-0.33715783
-0.32941056
-0.32183554
-0.31442419
-0.30713539
-0.2999211
-0.29272919
-0.28550612
-0.27820001
-0.27076076
-0.26313477
-0.25526073
-0.24708498
-0.23840672
-0.22760186
-0.21167197
-0.20333159
-0.19396686
-0.18462082
-0.17536568
-0.16614506
-0.15699985
-0.14798535
-0.13913744
-0.13048504
-0.1220562
-0.11387613
-0.1059661
-0.098344036
-0.091024868
-0.084020611
-0.077340428
-0.070990777
-0.06497555
-0.059296204
-0.053951899
-0.04893965
-0.044254491
-0.039889651
-0.035836738
-0.032085934
-0.028626196
-0.025445457
-0.022530834
-0.01986882
-0.017445486
-0.015246657
-0.013258088
-0.011465627
-0.0098553592
-0.0084137431
-0.0071277356
-0.0059849121
-0.0049735593
-0.0040828521
-0.0033027611
-0.0026249197
-0.002040492
-0.0015478615
-0.0011300229
-0.00082601812
-0.00051913966
-0.00057416724
2.2737769e-05
-0.0017771603
0.0026530254
-0.20450527
-0.19472242
-0.18525626
-0.17600961
-0.16676298
-0.1575787
-0.14853164
-0.1396539
-0.13097161
-0.12251347
-0.11430503
-0.10636747
-0.098718654
-0.091373601
-0.084344383
-0.077640211
-0.071267592
-0.065230464
-0.059530315
-0.05416633
-0.049135537
-0.044432973
-0.040051858
-0.035983784
-0.032218908
-0.028746156
-0.025553423
-0.022627783
-0.019955685
-0.017523149
-0.015315948
-0.013319787
-0.01152046
-0.009903997
-0.0084568067
-0.0071657941
-0.0060184843
-0.0050031156
-0.0041088161
-0.0033255108
-0.002644788
-0.0020577697
-0.0015627787
-0.001142808
-0.00083662643
-0.00052813244
-0.00057942901
1.5495027e-05
-0.0017640488
0.0026240227
-0.20692267
-0.19625271
-0.18654984
-0.17736246
-0.1680786
-0.15881777
-0.14970839
-0.14077286
-0.13203011
-0.1235111
-0.11524287
-0.10724644
-0.099539821
-0.092138357
-0.085054407
-0.078297391
-0.071874005
-0.065788345
-0.060042028
-0.054634326
-0.049562323
-0.044821083
-0.040403825
-0.036302113
-0.032506057
-0.029004514
-0.025785299
-0.022835387
-0.020141123
-0.017688413
-0.015462913
-0.013450205
-0.01163596
-0.010006087
-0.0085468717
-0.0072451011
-0.0060881856
-0.0050642522
-0.0041623227
-0.0033722186
-0.0026854279
-0.0020929769
-0.0015930637
-0.0011686557
-0.000858007
-0.00054613144
-0.00058999736
1.2414318e-06
-0.0017382026
0.0025666078
-0.21036644
-0.19827886
-0.18823296
-0.17923513
-0.16994702
-0.16059076
-0.15140937
-0.14240796
-0.13358938
-0.12498987
-0.11664049
-0.10856244
-0.10077402
-0.093291465
-0.08612788
-0.079293215
-0.072794618
-0.066636575
-0.060821015
-0.055347442
-0.05021311
-0.045413186
-0.040940944
-0.03678795
-0.032944278
-0.02939871
-0.026138957
-0.023151868
-0.020423638
-0.01794001
-0.015686466
-0.013648407
-0.011811316
-0.010160918
-0.0086833126
-0.0073651044
-0.0061935267
-0.0051565349
-0.0042429858
-0.0034425415
-0.0027465348
-0.0021458433
-0.0016384762
-0.0012073543
-0.00088997226
-0.00057297114
-0.00060576268
-1.9831229e-05
-0.0017001576
0.0024819933
-0.21454656
-0.20048256
-0.18999446
-0.18138915
-0.17218478
-0.16273732
-0.15349522
-0.14444403
-0.13555454
-0.12687025
-0.11843114
-0.11025976
-0.10237495
-0.094794478
-0.087532922
-0.080601315
-0.074007675
-0.067757238
-0.061852544
-0.056293582
-0.051077967
-0.04620113
-0.041656513
-0.037435775
-0.033529008
-0.029924956
-0.026611239
-0.023574572
-0.020800986
-0.018276027
-0.015984965
-0.013912971
-0.012045293
-0.010367409
-0.0088651788
-0.0075249651
-0.0063337657
-0.0052793067
-0.0043502239
-0.0035359644
-0.002827653
-0.0022159664
-0.0016986613
-0.001258592
-0.0009322514
-0.00060840807
-0.00062658702
-4.7413666e-05
-0.0016507902
0.0023720639
-0.2190623
-0.20254565
-0.19153284
-0.1835573
-0.17458711
-0.16508549
-0.15580824
-0.14674368
-0.13781167
-0.12905721
-0.12053438
-0.1122706
-0.10428589
-0.096600071
-0.089230077
-0.082188844
-0.075485879
-0.069127668
-0.063117803
-0.057457122
-0.052143908
-0.0471741
-0.042541506
-0.038238028
-0.034253892
-0.030577883
-0.027197585
-0.024099609
-0.021269827
-0.018693584
-0.016355913
-0.014241725
-0.012335987
-0.010623893
-0.0090910056
-0.0077233948
-0.0065077686
-0.0054315698
-0.0044831594
-0.0036517173
-0.0029281078
-0.002302757
-0.0017731054
-0.001321924
-0.00098446532
-0.00065211013
-0.0006522863
-8.1114319e-05
-0.0015912288
0.0022392706
-0.22348303
-0.20426489
-0.19261949
-0.18544192
-0.17693146
-0.16748761
-0.15821472
-0.14917743
-0.14024875
-0.13145795
-0.1228716
-0.1145274
-0.10644908
-0.098659035
-0.091177327
-0.084019819
-0.077198355
-0.070721327
-0.06459393
-0.058818327
-0.053393861
-0.048317297
-0.043583067
-0.039183521
-0.035109176
-0.031348979
-0.027890557
-0.024720472
-0.021824467
-0.019187695
-0.016794947
-0.01463085
-0.012680066
-0.010927459
-0.0093582564
-0.0079581877
-0.006713622
-0.005611669
-0.0046403655
-0.0037885745
-0.0030468511
-0.0024053235
-0.0018610548
-0.0013967199
-0.0010460956
-0.00070365066
-0.00068262807
-0.00012051213
-0.0015227694
0.0020864868
-0.2275287
-0.2060211
-0.19347406
-0.18685482
-0.17899884
-0.16984784
-0.16066187
-0.15167996
-0.14279449
-0.13400737
-0.12538433
-0.11697601
-0.10881428
-0.10092537
-0.093332946
-0.086056564
-0.079111241
-0.072507932
-0.066253963
-0.060353278
-0.054806674
-0.049612068
-0.044764787
-0.040257847
-0.036082234
-0.032227189
-0.028680489
-0.02542872
-0.022457543
-0.019751945
-0.017296482
-0.015075495
-0.013073319
-0.011274465
-0.0096637878
-0.0082266398
-0.0069490092
-0.0058176291
-0.0048201674
-0.0039451255
-0.0031827038
-0.0025226898
-0.0019617091
-0.0014823356
-0.0011166354
-0.00076263689
-0.00071743535
-0.00016525217
-0.0014468488
0.0019169629
-0.22886048
-0.20802144
-0.19475905
-0.18772351
-0.18035453
-0.17178489
-0.16287451
-0.15401798
-0.14523304
-0.13651456
-0.12791149
-0.11948252
-0.111271
-0.10330935
-0.09562549
-0.088243347
-0.081182013
-0.07445589
-0.068075217
-0.06204642
-0.056372384
-0.051052744
-0.046084206
-0.041460867
-0.037174532
-0.033215025
-0.0295705
-0.026227748
-0.023172486
-0.020389634
-0.017863579
-0.015578414
-0.013518164
-0.011666984
-0.010009343
-0.008530187
-0.0072150897
-0.0060503663
-0.0050232722
-0.0041219
-0.0033360472
-0.0026551132
-0.0020752236
-0.0015788359
-0.0011960943
-0.00082897032
-0.00075678518
-0.00021479699
-0.0013653255
0.0017349371
-0.21916259
-0.20735698
-0.19598505
-0.1875379
-0.18011055
-0.17232786
-0.16403178
-0.15554627
-0.14705011
-0.13857102
-0.13013898
-0.12181296
-0.1136492
-0.10569093
-0.09797382
-0.090528895
-0.083381883
-0.076552999
-0.070057427
-0.063905802
-0.058104557
-0.052656271
-0.047560055
-0.042811927
-0.038405187
-0.03433079
-0.030577699
-0.027133242
-0.023983441
-0.021113331
-0.018507256
-0.016149139
-0.014022738
-0.012111867
-0.010400599
-0.0088734509
-0.0075155422
-0.0063127258
-0.0052517934
-0.0043203743
-0.0035078082
-0.0028030482
-0.0022016609
-0.0016859388
-0.0012839772
-0.0009018106
-0.00080020532
-0.00026718408
-0.0012806384
0.0015460421
-0.19730374
-0.20132031
-0.19559865
-0.18638292
-0.1785446
-0.17118224
-0.16334145
-0.1551644
-0.14691495
-0.13865757
-0.13041457
-0.12224065
-0.11419605
-0.1063286
-0.098677422
-0.091276685
-0.084155311
-0.0773365
-0.070838127
-0.06467324
-0.058850423
-0.053374151
-0.04824518
-0.043460949
-0.039015964
-0.034902193
-0.031109437
-0.027625704
-0.024437554
-0.021530438
-0.018889006
-0.016497396
-0.014339499
-0.012399196
-0.010660574
-0.0091081126
-0.0077268614
-0.0065025714
-0.0054219058
-0.0044723501
-0.0036430498
-0.0029228273
-0.0023067635
-0.0017775789
-0.0013605301
-0.0009680506
-0.00083774661
-0.00031922812
-0.0011927887
0.0013585335
-0.18648613
-0.19161082
-0.18772129
-0.17874359
-0.17125834
-0.16468393
-0.1576764
-0.15024368
-0.14267762
-0.13505451
-0.12738753
-0.11972743
-0.11213707
-0.10466825
-0.097363993
-0.090262597
-0.08339734
-0.076795732
-0.070479778
-0.064466435
-0.058767949
-0.05339219
-0.048343038
-0.043620777
-0.039222495
-0.035142482
-0.031372617
-0.02790275
-0.024721067
-0.021814438
-0.019168747
-0.016769191
-0.01460056
-0.012647496
-0.010894713
-0.0093272062
-0.0079304381
-0.0066904831
-0.0055942395
-0.004629375
-0.0037850813
-0.0030503475
-0.0024197601
-0.0018770977
-0.0014436626
-0.0010413414
-0.00087742154
-0.00038019294
-0.0010922171
0.0011555045
-0.17741808
-0.18003763
-0.17737944
-0.17015461
-0.16355996
-0.15771321
-0.15150174
-0.1448264
-0.13794892
-0.130965
-0.12389018
-0.11676931
-0.10966415
-0.10262851
-0.095707722
-0.088942727
-0.082369962
-0.076020412
-0.06991963
-0.064088105
-0.058541535
-0.053291107
-0.048343838
-0.04370295
-0.039368253
-0.035336531
-0.031601934
-0.028156357
-0.024989816
-0.022090802
-0.01944662
-0.017043705
-0.014867914
-0.012904794
-0.011139826
-0.0095586364
-0.0081472035
-0.0068920136
-0.0057802741
-0.0047998976
-0.003940163
-0.0031902784
-0.0025443019
-0.0019872197
-0.0015359488
-0.0011229009
-0.00092185824
-0.00044802447
-0.00098225124
0.00093234362
-0.16740917
-0.16754025
-0.16537149
-0.16023591
-0.15490014
-0.14982906
-0.1444369
-0.13859826
-0.13248682
-0.1262034
-0.11977903
-0.11325672
-0.10669499
-0.10014842
-0.093664359
-0.087285951
-0.081052354
-0.074997751
-0.069151125
-0.06353648
-0.058173038
-0.053075451
-0.048254075
-0.043715307
-0.039461938
-0.035493519
-0.031806744
-0.028395824
-0.025252861
-0.022368211
-0.01973083
-0.017328599
-0.015148629
-0.013177546
-0.01140174
-0.0098076053
-0.0083817467
-0.0071111583
-0.0059834358
-0.0049868011
-0.0041106693
-0.0033445025
-0.0026818472
-0.002108908
-0.0016381618
-0.0012126133
-0.00097208587
-0.00051977166
-0.00087056386
0.00069930391
-0.15652329
-0.15489357
-0.15280043
-0.14938887
-0.14536788
-0.14113215
-0.13656389
-0.13159213
-0.12629853
-0.12076615
-0.11504113
-0.10916901
-0.10320419
-0.097200182
-0.091205378
-0.085264375
-0.079418278
-0.073703874
-0.068153194
-0.062793529
-0.057647529
-0.052733321
-0.048064707
-0.043651426
-0.039499468
-0.035611405
-0.03198674
-0.028622277
-0.025512478
-0.022649832
-0.020025195
-0.017628132
-0.015447225
-0.013470373
-0.011685055
-0.010078583
-0.0086383248
-0.0073518964
-0.0062073782
-0.0051933778
-0.0042995115
-0.00351553
-0.0028345199
-0.0022438484
-0.0017517092
-0.0013112367
-0.0010293805
-0.00059450771
-0.00076308854
0.00046453063
-0.14446293
-0.14213688
-0.14020983
-0.13808364
-0.13525085
-0.13187771
-0.12812137
-0.12399527
-0.11952165
-0.1147565
-0.10975312
-0.10455878
-0.099223509
-0.093798422
-0.08833176
-0.082868478
-0.077450504
-0.072116221
-0.066899926
-0.061831609
-0.056936916
-0.052237161
-0.047749431
-0.043486763
-0.039458379
-0.035669973
-0.032124015
-0.028820085
-0.02575522
-0.022924257
-0.020320182
-0.017934459
-0.015757353
-0.013778234
-0.011985853
-0.010368604
-0.0089147659
-0.0076127041
-0.0064510958
-0.0054190253
-0.0045063903
-0.0037032726
-0.003002381
-0.0023921517
-0.0018768187
-0.0014187954
-0.001094491
-0.00067149107
-0.00066569473
0.00023661491
-0.13154813
-0.12941595
-0.12787913
-0.12667941
-0.12482635
-0.12228574
-0.11931214
-0.11598413
-0.11229988
-0.10828955
-0.10400495
-0.099494608
-0.094803314
-0.089977332
-0.085063501
-0.080106273
-0.075147347
-0.070225553
-0.065376428
-0.060631838
-0.056019755
-0.05156416
-0.047285038
-0.043198462
-0.039316742
-0.035648632
-0.032199582
-0.028972028
-0.025965694
-0.02317792
-0.020603988
-0.018237444
-0.016070422
-0.014093942
-0.012298201
-0.010672842
-0.0092072009
-0.007890532
-0.0067122281
-0.0056619513
-0.0047299738
-0.0039067582
-0.0031847444
-0.0025533181
-0.0020132204
-0.0015349772
-0.0011679124
-0.00075002984
-0.00058424151
2.4754507e-05
-0.11848584
-0.11697446
-0.11595855
-0.11543136
-0.11435005
-0.11256461
-0.11032186
-0.10772908
-0.10478123
-0.10149107
-0.097902334
-0.094061212
-0.090009112
-0.085786775
-0.081436528
-0.077001112
-0.072521274
-0.068035296
-0.063578866
-0.059184742
-0.054882393
-0.050697766
-0.04665318
-0.042767298
-0.039055189
-0.035528451
-0.032195385
-0.029061227
-0.026128403
-0.023396815
-0.020864139
-0.018526131
-0.01637693
-0.014409361
-0.012615223
-0.010985555
-0.0095109009
-0.0081815342
-0.0069876889
-0.0059197118
-0.004968352
-0.0041245105
-0.0033804878
-0.0027264917
-0.0021603399
-0.0016593085
-0.001249924
-0.0008297078
-0.00052382004
-0.00016232114
-0.10580716
-0.10498869
-0.10451305
-0.10449685
-0.10401957
-0.10288913
-0.10130587
-0.099376999
-0.097100626
-0.094480114
-0.091549244
-0.088348637
-0.08491512
-0.081284943
-0.077495815
-0.073586335
-0.06959496
-0.06555866
-0.061512385
-0.057488812
-0.053517999
-0.049627066
-0.045839975
-0.042177405
-0.038656717
-0.035291987
-0.032094106
-0.029070932
-0.02622749
-0.023566205
-0.021087162
-0.018788378
-0.016666089
-0.01471503
-0.01292872
-0.011299727
-0.0098199282
-0.0084807447
-0.0072733716
-0.0061889486
-0.0052188086
-0.0043543564
-0.0035878953
-0.0029103389
-0.002317204
-0.0017911029
-0.0013404947
-0.00091042638
-0.00048800544
-0.00031753473
-0.093789225
-0.093575822
-0.09358746
-0.093974427
-0.093973449
-0.093393633
-0.092386956
-0.091046036
-0.089370965
-0.0873603
-0.085038588
-0.082439225
-0.079593649
-0.076532959
-0.073290299
-0.069900106
-0.066397035
-0.062815519
-0.059188976
-0.055549188
-0.051925941
-0.048346708
-0.044836355
-0.041416925
-0.038107514
-0.03492421
-0.03188012
-0.02898544
-0.026247589
-0.023671382
-0.02125924
-0.019011422
-0.016926279
-0.015000514
-0.013229441
-0.011607251
-0.010127262
-0.0087821498
-0.0075641813
-0.0064653913
-0.0054778021
-0.0045933943
-0.0038046205
-0.00310301
-0.0024824057
-0.0019294227
-0.0014392168
-0.00099232133
-0.00047830177
-0.00043650766
-0.082567216
-0.082825007
-0.083234196
-0.083937185
-0.084310434
-0.084181725
-0.083664517
-0.082833046
-0.081686716
-0.080221029
-0.078452718
-0.076407633
-0.074111298
-0.07158945
-0.068870076
-0.065983171
-0.062959509
-0.059830023
-0.056625564
-0.053376244
-0.050110834
-0.046856386
-0.043637931
-0.040478197
-0.037397407
-0.034413136
-0.031540255
-0.028790933
-0.026174693
-0.023698524
-0.021367032
-0.019182625
-0.017145726
-0.015254999
-0.01350759
-0.011899367
-0.010425157
-0.0090789809
-0.007854266
-0.0067440359
-0.0057411012
-0.0048380928
-0.0040277569
-0.0033021836
-0.0026541334
-0.0020730704
-0.0015452772
-0.0010756162
-0.00049385716
-0.00051831537
-0.07219836
-0.072797004
-0.073505152
-0.074444582
-0.075104677
-0.075335423
-0.075221723
-0.074820822
-0.074129818
-0.073141636
-0.071866511
-0.070323186
-0.068531168
-0.06651076
-0.064284683
-0.06187802
-0.059317311
-0.056629803
-0.053843084
-0.05098476
-0.048081868
-0.04516035
-0.0422447
-0.039357661
-0.036519954
-0.033750079
-0.031064177
-0.02847596
-0.025996703
-0.023635282
-0.021398271
-0.01929007
-0.017313067
-0.015467832
-0.013753322
-0.012167094
-0.010705527
-0.0093640385
-0.0081372903
-0.0070193705
-0.0060039665
-0.0050844339
-0.0042539487
-0.0035051441
-0.0028302249
-0.0022205897
-0.0016574545
-0.0011604444
-0.0005315397
-0.0005657339
-0.062692356
-0.063522941
-0.06443952
-0.065542688
-0.066412618
-0.06692008
-0.0671287
-0.067081645
-0.066773392
-0.066194579
-0.065350046
-0.064252236
-0.062914934
-0.06135315
-0.059584424
-0.057628854
-0.055508405
-0.053246308
-0.050866627
-0.048393901
-0.045852746
-0.043267347
-0.040661025
-0.038055888
-0.035472543
-0.032929833
-0.030444641
-0.028031757
-0.025703801
-0.023471199
-0.021342213
-0.019323019
-0.017417812
-0.015628958
-0.013957156
-0.012401625
-0.010960297
-0.009630015
-0.0084067185
-0.0072856199
-0.0062613577
-0.0053280832
-0.0044795266
-0.0037088812
-0.0030082398
-0.0023702778
-0.0017741446
-0.0012466857
-0.0005864075
-0.00058482113
-0.054032631
-0.055009539
-0.056058576
-0.05726217
-0.058274891
-0.058985975
-0.059442874
-0.059677572
-0.059682369
-0.05944609
-0.058969206
-0.058258811
-0.057323565
-0.056173571
-0.054821461
-0.053282494
-0.051574033
-0.049715065
-0.047725858
-0.045627595
-0.043441989
-0.041190896
-0.038895876
-0.036577822
-0.034256628
-0.031950906
-0.029677746
-0.027452518
-0.025288745
-0.023198016
-0.021189957
-0.01927225
-0.017450685
-0.015729263
-0.014110315
-0.01259465
-0.011181718
-0.0098697807
-0.0086560761
-0.0075369799
-0.0065081394
-0.0055645662
-0.0047006548
-0.0039102026
-0.0031855451
-0.002520214
-0.0018934251
-0.0013338628
-0.00065250921
-0.00058383519
-0.046186852
-0.047244519
-0.048365551
-0.049617461
-0.050716581
-0.051568502
-0.052208314
-0.052659313
-0.052912341
-0.052955044
-0.05278454
-0.052403578
-0.051816472
-0.051029008
-0.050049376
-0.048888329
-0.047558813
-0.046075603
-0.044455034
-0.042714718
-0.040873192
-0.038949564
-0.036963148
-0.034933093
-0.032878046
-0.030815843
-0.028763242
-0.026735693
-0.024747154
-0.022809956
-0.020934722
-0.019130322
-0.017403885
-0.015760836
-0.014204979
-0.012738601
-0.011362597
-0.010076607
-0.008879161
-0.007767813
-0.0067392595
-0.0057894267
-0.0049134669
-0.0041058437
-0.0033594027
-0.0026683078
-0.0020131542
-0.0014211249
-0.00072384854
-0.00057169646
-0.039112298
-0.04020181
-0.041348683
-0.042608229
-0.043748226
-0.04468877
-0.045455609
-0.046065427
-0.046508334
-0.046771475
-0.046849588
-0.046742086
-0.046449798
-0.045974908
-0.045321782
-0.044497165
-0.043509945
-0.042370906
-0.041092534
-0.039688811
-0.038174942
-0.036567043
-0.034881825
-0.033136276
-0.031347328
-0.029531552
-0.027704875
-0.02588233
-0.024077837
-0.022304031
-0.020572129
-0.018891841
-0.017271324
-0.015717181
-0.014234484
-0.012826839
-0.011496473
-0.010244333
-0.009070199
-0.0079727946
-0.0069498844
-0.0059983498
-0.0051141765
-0.0042925618
-0.0035270512
-0.0028123595
-0.0021310956
-0.0015073149
-0.00079527731
-0.00055637507
-0.032760364
-0.033846458
-0.034985321
-0.036222264
-0.037367885
-0.038355095
-0.039202685
-0.039922419
-0.040504308
-0.040935601
-0.04120954
-0.041323151
-0.041274642
-0.041063369
-0.040690568
-0.040159589
-0.039475764
-0.038646262
-0.037679971
-0.03658737
-0.035380327
-0.034071867
-0.0326759
-0.031206955
-0.029679886
-0.028109591
-0.026510722
-0.024897438
-0.023283167
-0.021680405
-0.020100549
-0.01855377
-0.017048918
-0.015593477
-0.014193544
-0.012853847
-0.011577788
-0.010367511
-0.009223971
-0.0081470253
-0.0071355
-0.006187253
-0.0052991573
-0.0044672079
-0.0036857738
-0.0029501294
-0.0022450456
-0.0015910906
-0.00086308439
-0.00054364552
-0.027079966
-0.028138331
-0.029245492
-0.030438545
-0.03156368
-0.032565042
-0.033456303
-0.034245645
-0.034923463
-0.035477597
-0.035900542
-0.036187778
-0.036335687
-0.036341558
-0.036204217
-0.035924282
-0.03550412
-0.03494777
-0.034260911
-0.033450789
-0.032526097
-0.03149681
-0.030373985
-0.029169536
-0.027896003
-0.026566295
-0.025193437
-0.023790318
-0.022369459
-0.0209428
-0.019521509
-0.018115828
-0.016734945
-0.015386903
-0.014078542
-0.012815476
-0.011602092
-0.010441577
-0.0093359572
-0.0082861494
-0.0072920078
-0.0063523649
-0.0054650102
-0.0046267853
-0.0038329544
-0.0030794058
-0.0023529369
-0.0016710563
-0.00092514276
-0.00053654029
-0.022019826
-0.023034764
-0.02409471
-0.025229975
-0.026316322
-0.027307663
-0.028213924
-0.029040718
-0.029779162
-0.030418035
-0.030949673
-0.031368697
-0.031670367
-0.031850589
-0.031906465
-0.031836547
-0.031640849
-0.031320842
-0.030879463
-0.030321112
-0.029651593
-0.028878015
-0.028008658
-0.027052812
-0.02602059
-0.024922727
-0.023770357
-0.022574792
-0.021347298
-0.020098886
-0.018840117
-0.017580928
-0.016330482
-0.015097047
-0.013887905
-0.012709287
-0.011566339
-0.010463107
-0.0094025424
-0.0083865204
-0.0074158569
-0.0064903285
-0.0056086426
-0.0047685144
-0.003966135
-0.0031980735
-0.0024529053
-0.00174587
-0.00098063899
-0.00053557842
-0.017530338
-0.018492771
-0.019496406
-0.020565899
-0.021601597
-0.022565847
-0.023465825
-0.024305322
-0.025076371
-0.025768905
-0.026375525
-0.026890536
-0.027308635
-0.027624934
-0.027835417
-0.027937184
-0.027928502
-0.027808834
-0.027578896
-0.027240696
-0.026797522
-0.02625391
-0.025615564
-0.024889255
-0.024082692
-0.023204365
-0.022263373
-0.021269239
-0.020231711
-0.019160569
-0.018065434
-0.016955598
-0.015839855
-0.014726368
-0.013622549
-0.012534963
-0.011469264
-0.010430144
-0.009421305
-0.008445444
-0.0075042422
-0.0065983592
-0.0057273923
-0.0048899309
-0.0040830939
-0.0033041898
-0.0025433258
-0.0018143119
-0.0010295639
-0.00053955692
-0.01356464
-0.014470477
-0.015413637
-0.016414002
-0.017392382
-0.018318366
-0.019197097
-0.020031059
-0.020813294
-0.021534983
-0.02218927
-0.022770529
-0.023273329
-0.023692448
-0.024023259
-0.024261945
-0.024405566
-0.02445212
-0.024400616
-0.024251145
-0.024004911
-0.023664238
-0.023232544
-0.022714293
-0.022114918
-0.021440714
-0.020698713
-0.019896541
-0.019042263
-0.018144204
-0.017210791
-0.016250377
-0.015271088
-0.014280671
-0.013286364
-0.012294786
-0.011311835
-0.010342617
-0.0093913874
-0.0084615015
-0.0075553794
-0.0066744739
-0.0058192135
-0.0049890349
-0.0041819619
-0.0033960808
-0.0026228394
-0.0018753264
-0.0010722054
-0.00054651933
-0.010080096
-0.010928847
-0.011811001
-0.012742347
-0.013660756
-0.014542009
-0.015389715
-0.016205413
-0.016983148
-0.017715358
-0.018395887
-0.019019431
-0.01958073
-0.020074575
-0.020496119
-0.020841061
-0.021105719
-0.021287101
-0.021382988
-0.021392021
-0.021313754
-0.021148699
-0.020898336
-0.020565105
-0.020152379
-0.019664401
-0.019106209
-0.018483534
-0.017802683
-0.017070404
-0.016293746
-0.015479909
-0.014636097
-0.01376938
-0.01288655
-0.011994006
-0.011097636
-0.010202723
-0.009313863
-0.0084348889
-0.0075688104
-0.0067177574
-0.0058829048
-0.0050644815
-0.0042613734
-0.0034724588
-0.0026903952
-0.0019280613
-0.0011088251
-0.00055454141
-0.0070382627
-0.0078321222
-0.0086554847
-0.0095206041
-0.01037958
-0.011213458
-0.012024668
-0.012814042
-0.013576565
-0.014305871
-0.014996567
-0.015643816
-0.016242717
-0.016788307
-0.017275801
-0.017700742
-0.018059078
-0.018347222
-0.018562143
-0.018701452
-0.018763474
-0.018747305
-0.018652854
-0.018480865
-0.018232926
-0.017911448
-0.017519631
-0.017061401
-0.016541335
-0.015964568
-0.01533668
-0.01466358
-0.013951376
-0.013206249
-0.012434322
-0.011641536
-0.010833536
-0.010015554
-0.0091923142
-0.0083679399
-0.0075458664
-0.0067287652
-0.0059184504
-0.0051158644
-0.0043206933
-0.0035325945
-0.002745346
-0.0019719369
-0.0011395734
-0.0005621634
-0.0044063464
-0.0051491068
-0.0059176133
-0.0067210087
-0.0075232505
-0.0083098501
-0.0090823049
-0.0098408972
-0.010581458
-0.01129871
-0.011988014
-0.012645065
-0.01326542
-0.013844496
-0.014377753
-0.014860815
-0.015289527
-0.015660018
-0.015968782
-0.01621276
-0.016389413
-0.016496793
-0.016533594
-0.016499202
-0.016393725
-0.016218006
-0.01597362
-0.015662853
-0.015288661
-0.014854613
-0.014364818
-0.013823837
-0.01323658
-0.012608203
-0.01194399
-0.01124924
-0.010529152
-0.0097887079
-0.0090325666
-0.0082649553
-0.0074895696
-0.0067094776
-0.0059270105
-0.0051437268
-0.0043600342
-0.003576331
-0.0027874423
-0.0020066408
-0.0011644981
-0.00056845588
-0.0021585612
-0.0028556422
-0.0035748811
-0.0043227715
-0.0050730857
-0.0058150644
-0.0065494553
-0.0072760971
-0.0079915504
-0.0086914951
-0.0093719918
-0.010029265
-0.010659358
-0.011258132
-0.011821394
-0.012344988
-0.012824844
-0.01325703
-0.013637822
-0.013963773
-0.014231793
-0.014439206
-0.014583821
-0.014663988
-0.014678642
-0.014627342
-0.014510296
-0.014328363
-0.01408305
-0.013776485
-0.01341138
-0.012990975
-0.012518966
-0.011999421
-0.011436695
-0.010835319
-0.010199902
-0.0095350208
-0.0088451018
-0.0081343162
-0.0074064641
-0.0066648675
-0.0059122464
-0.0051506658
-0.0043811618
-0.0036048096
-0.002817404
-0.0020325696
-0.001183956
-0.00057310968
-0.00027000629
-0.0009269123
-0.0016027864
-0.0023017387
-0.0030056085
-0.0037067471
-0.0044052972
-0.0051007261
-0.0057902009
-0.006470214
-0.0071374428
-0.0077886007
-0.0084202
-0.0090285471
-0.0096098318
-0.010160191
-0.010675747
-0.011152649
-0.01158713
-0.01197557
-0.012314557
-0.012600952
-0.012831953
-0.013005156
-0.013118611
-0.013170872
-0.013161037
-0.013088782
-0.012954373
-0.012758676
-0.012503143
-0.012189786
-0.011821139
-0.011400199
-0.010930359
-0.010415328
-0.0098590402
-0.0092655546
-0.0086389477
-0.0079832019
-0.0073020888
-0.006599053
-0.0058770789
-0.0051386244
-0.0043852496
-0.0036186242
-0.0028354197
-0.0020496106
-0.0011977071
-0.0005756809
0.0012560101
0.00063181696
-8.3793512e-06
-0.00066693837
-0.001332105
-0.0019986707
-0.0026662827
-0.0033341103
-0.0039998067
-0.0046605225
-0.0053134463
-0.00595571
-0.0065842379
-0.0071957419
-0.0077867781
-0.0083537892
-0.0088931329
-0.0094011153
-0.0098740349
-0.010308233
-0.01070015
-0.011046378
-0.011343727
-0.011589279
-0.011780454
-0.011915062
-0.011991356
-0.012008082
-0.011964507
-0.011860453
-0.011696306
-0.011473013
-0.011192078
-0.010855522
-0.010465844
-0.010025956
-0.0095391142
-0.0090088306
-0.0084387744
-0.0078326653
-0.0071941569
-0.0065267172
-0.0058334907
-0.0051172213
-0.0043798861
-0.0036236498
-0.0028459475
-0.0020610525
-0.0012080668
-0.00057735664
0.0024616521
0.0018643911
0.0012534175
0.00062798917
-5.1366059e-06
-0.00064269976
-0.0012839656
-0.0019278549
-0.0025723888
-0.003215231
-0.0038539751
-0.0044860913
-0.0051088429
-0.0057192832
-0.006314287
-0.0068905769
-0.007444744
-0.0079732737
-0.0084725795
-0.0089390439
-0.0093690639
-0.0097591012