/*--------------------------------*- C++ -*----------------------------------*\
  =========                 |
  \\      /  F ield         | OpenFOAM: The Open Source CFD Toolbox
   \\    /   O peration     | Website:  https://openfoam.org
    \\  /    A nd           | Version:  6
     \\/     M anipulation  |
\*---------------------------------------------------------------------------*/
FoamFile
{
    version     2.0;
    format      ascii;
    class       surfaceScalarField;
    location    "94";
    object      phi_0;
}
// * * * * * * * * * * * * * * * * * * * * * * * * * * * * * * * * * * * * * //

dimensions      [0 3 -1 0 0 0 0];

internalField   nonuniform List<scalar> 
18180
(
0.00031877742
-0.0001632554
-0.00015552198
0.0013094039
-0.0013673067
0.00037668026
0.0030333275
-0.0033344122
0.0016104886
0.0055505686
-0.0059772541
0.0034600131
0.0089194602
-0.0092409755
0.0058720839
0.01319466
-0.01308212
0.0088069211
0.018424488
-0.017463216
0.012233388
0.02464796
-0.022350041
0.016126569
0.031891634
-0.027708495
0.020464822
0.040166534
-0.033501983
0.025227083
0.049465466
-0.039689656
0.030390724
0.05976109
-0.046225491
0.035929868
0.071005153
-0.0530582
0.041814136
0.083129351
-0.060131985
0.048007787
0.096048408
-0.067388249
0.054469192
0.10966592
-0.074768358
0.061150848
0.12388237
-0.08221732
0.068000872
0.13861036
-0.089688081
0.074960091
0.15384841
-0.097163495
0.081925438
-0.10464119
0.088694509
0.16979509
0.00039755194
-0.00056080729
0.0016098118
-0.0025795664
0.0036898077
-0.0054144081
0.0066883188
-0.0089757652
0.010652026
-0.013204683
0.015619852
-0.018049946
0.021618951
-0.023462315
0.028660745
-0.029391835
0.036737292
-0.035785042
0.045818386
-0.042583077
0.055849822
-0.049721092
0.066753184
-0.057128853
0.078427397
-0.064732413
0.090752131
-0.072456719
0.10359285
-0.080228968
0.11680691
-0.087982416
0.13024973
-0.095660146
0.14378162
-0.10321996
0.15726661
-0.11064849
-0.11787624
0.17050167
0.00048068468
-0.0010414919
0.0019189367
-0.0040178184
0.0043530097
-0.007848481
0.0078174996
-0.012440255
0.012339113
-0.017726296
0.017931263
-0.023642096
0.024588991
-0.030120042
0.032284689
-0.037087534
0.040965077
-0.04446543
0.050549895
-0.052167895
0.060932715
-0.060103912
0.071984017
-0.068180156
0.08355642
-0.076304816
0.095491652
-0.084391951
0.10762852
-0.09236584
0.11981084
-0.10016474
0.13189409
-0.10774339
0.14374883
-0.1150747
0.15525309
-0.12215275
-0.12892748
0.16630433
0.00056623658
-0.0016077285
0.002228198
-0.0056797797
0.0050011714
-0.010621454
0.0088949828
-0.016334066
0.013906736
-0.022738049
0.020013939
-0.0297493
0.027169171
-0.037275274
0.035296737
-0.0452151
0.044291785
-0.053460478
0.054022239
-0.06189835
0.064333599
-0.070415272
0.075056269
-0.078902825
0.086014728
-0.087263275
0.097037553
-0.095414775
0.10796714
-0.10329543
0.11866804
-0.11086563
0.12903292
-0.11810828
0.13898525
-0.12502703
0.14847606
-0.13164356
-0.13795714
0.15750571
0.00065095749
-0.0022586859
0.0025246082
-0.0075534304
0.0056042084
-0.013701054
0.0098654425
-0.0205953
0.015266067
-0.028138673
0.021738389
-0.036221622
0.029184994
-0.044721878
0.037477908
-0.053508014
0.046461443
-0.062444012
0.055958586
-0.071395493
0.065780332
-0.080237018
0.075736879
-0.088859372
0.085649348
-0.097175744
0.095360583
-0.10512601
0.10474376
-0.11267861
0.11370792
-0.1198298
0.12220013
-0.12660048
0.13020424
-0.13303114
0.13773651
-0.13917583
-0.1450783
0.14485767
0.00073070958
-0.0029893954
0.002792356
-0.0096150768
0.0061271434
-0.017035842
0.01066766
-0.025135817
0.016324027
-0.03379504
0.022977063
-0.042874658
0.030476664
-0.052221479
0.038644976
-0.061676326
0.047283997
-0.071083032
0.056186624
-0.08029812
0.065149684
-0.089200078
0.073987117
-0.097696805
0.082541534
-0.10573016
0.09069271
-0.11327719
0.09836207
-0.12034797
0.105513
-0.12698073
0.11214749
-0.13323497
0.11830004
-0.13918369
0.12403016
-0.14490595
-0.15047291
0.12942478
0.00080080519
-0.0037902005
0.0030141801
-0.011828452
0.0065334382
-0.0205551
0.011240935
-0.029843314
0.016993942
-0.039548047
0.023620132
-0.049500849
0.030920083
-0.05952143
0.038675364
-0.069431607
0.046660859
-0.079068527
0.054659363
-0.088296624
0.062476131
-0.097016846
0.069951165
-0.10517184
0.076967556
-0.11274655
0.083454944
-0.11976458
0.089388105
-0.12628113
0.09478139
-0.13237401
0.099680419
-0.138134
0.10415263
-0.1436559
0.10827825
-0.14903158
-0.1543422
0.11214754
0.00085613043
-0.0046463309
0.0031723094
-0.014144631
0.0067877242
-0.024170514
0.011530586
-0.034586175
0.017204498
-0.045221959
0.023587844
-0.055884195
0.030441313
-0.066374899
0.037520786
-0.07651108
0.044593129
-0.08614087
0.051452048
-0.095155543
0.057931236
-0.10349603
0.063912801
-0.1111534
0.069329974
-0.11816373
0.074164242
-0.12459884
0.078437966
-0.13055485
0.082204178
-0.13614023
0.085535463
-0.14146529
0.088513643
-0.14663408
0.091221569
-0.1517395
-0.15685982
0.093739187
0.00089032905
-0.0055366599
0.0032485072
-0.016502809
0.0068580562
-0.027780063
0.01149312
-0.039221239
0.016907656
-0.050636495
0.02283986
-0.061816399
0.029024646
-0.072559684
0.035210105
-0.082696539
0.041174518
-0.092105283
0.046740579
-0.1007216
0.051784305
-0.10853976
0.056237418
-0.11560652
0.060083435
-0.12200974
0.06334878
-0.12786419
0.066090959
-0.13329703
0.068386007
-0.13843527
0.070317086
-0.14339636
0.071965618
-0.14828261
0.073405536
-0.15317942
-0.1581547
0.074700419
0.00089987734
-0.0064365372
0.0032335718
-0.018836503
0.006729519
-0.031276011
0.011111684
-0.043603404
0.016093092
-0.055617903
0.021385239
-0.067108546
0.026714394
-0.077888839
0.031839388
-0.087821534
0.03656699
-0.096832885
0.040761691
-0.1049163
0.044348311
-0.11212638
0.047307534
-0.11856574
0.049665894
-0.1243681
0.051482586
-0.12968088
0.052835576
-0.13465002
0.053809156
-0.13940885
0.054484343
-0.14407155
0.054932757
-0.14873103
0.055213794
-0.15346046
0.055373537
-0.15831444
-0.00020240727
0.00020240686
3.9828075e-10
-0.00067783921
0.00047543153
3.9966186e-10
-0.0013426027
0.00066476317
3.5413488e-10
-0.0021325653
0.00078996227
3.4595851e-10
-0.0029961402
0.00086357452
3.3641956e-10
-0.003891198
0.0008950575
3.1693145e-10
-0.0047828327
0.00089163444
2.8869322e-10
-0.0056414921
0.00085865916
2.5194646e-10
-0.0064415069
0.00080001465
2.0940557e-10
-0.0071599397
0.00071843266
1.6007807e-10
-0.0077756662
0.0006157264
1.0760617e-10
-0.0082686398
0.00049297358
5.0252032e-11
-0.0086193118
0.00035067206
-7.6897286e-12
-0.008808198
0.00018888621
-6.8452716e-11
-0.0088156228
7.4250119e-06
-1.2805643e-10
-0.0086217438
-0.00019387878
-1.8838757e-10
-0.0082068149
-0.00041492865
-2.4545486e-10
-0.0075507812
-0.00065603345
-3.0125845e-10
-0.0066328728
-0.00091790796
-3.5213211e-10
-0.0011869466
-0.0054459258
-3.9633215e-10
-0.000188
0.00039040686
-0.00062508765
0.00091251918
-0.0012289048
0.0012685803
-0.0019354223
0.0014964798
-0.00269244
0.0016205922
-0.003456647
0.0016592645
-0.0041914746
0.0016264621
-0.0048652867
0.0015324713
-0.0054499416
0.0013846696
-0.0059196567
0.0011881478
-0.006250093
0.00094616263
-0.0064176126
0.00066049323
-0.0063986744
0.00033173394
-0.0061693545
-4.0433674e-05
-0.0057050209
-0.00045690862
-0.0049802532
-0.0009186465
-0.0039690585
-0.0014261233
-0.0026447923
-0.0019802997
-0.00098000811
-0.0025826921
-0.0032034812
0.0010365265
-0.00015894675
0.00054935362
-0.00051894881
0.0012725212
-0.0010008727
0.0017505042
-0.001541404
0.0020370111
-0.0020875237
0.002166712
-0.0025939173
0.0021656581
-0.0030210295
0.0020535743
-0.0033333969
0.0018448387
-0.003498302
0.0015495747
-0.0034846968
0.0011745426
-0.0032623188
0.00072378465
-0.0028009711
0.00019914556
-0.0020698885
-0.00039934867
-0.0010372233
-0.0010730988
0.00033038391
-0.0018245158
0.0020680812
-0.0026563438
0.0042127651
-0.0035708072
0.0068027746
-0.0045703091
0.0098778214
-0.005657739
-0.0067828656
0.013457206
-0.00011757702
0.00066693065
-0.00036702466
0.0015219689
-0.00067355044
0.00205703
-0.00097485754
0.0023383182
-0.0012168558
0.0024087103
-0.0013515312
0.0023003335
-0.0013352881
0.0020373312
-0.001127494
0.0016370447
-0.00068928323
0.001111364
1.7395535e-05
0.00046786382
0.0010305638
-0.00028938359
0.00238886
-0.0011591506
0.0041320849
-0.0021425736
0.0063016832
-0.0032426971
0.0089412496
-0.0044640822
0.012097086
-0.0058121798
0.015818574
-0.0072922959
0.02015788
-0.0089096145
0.025169734
-0.010669594
-0.012497663
0.030884531
-6.6907822e-05
0.00073383848
-0.00017915719
0.0016342183
-0.00026649527
0.0021443681
-0.00026759398
0.0023394169
-0.000126998
0.0022681143
0.00020651215
0.0019668234
0.00078124889
0.0014625945
0.0016437871
0.00077450647
0.0028399341
-8.4783008e-05
0.0044155153
-0.0011077174
0.0064169381
-0.0022908064
0.0088916079
-0.0036338204
0.011888254
-0.0051392192
0.015457257
-0.0068117007
0.019651027
-0.0086578524
0.02452462
-0.010685772
0.030136614
-0.01290429
0.036549624
-0.015322625
0.043831065
-0.017951035
-0.020689883
0.052023286
-9.9749325e-06
0.00074381343
3.4580438e-05
0.0015896629
0.00020000643
0.0019789422
0.00054699757
0.0019924258
0.0011326497
0.0016824622
0.0020116207
0.0010878525
0.0032370945
0.00023712075
0.0048616641
-0.00085006312
0.0069379892
-0.0021611082
0.0095191705
-0.0036888986
0.012658958
-0.0054305934
0.016411854
-0.0073867164
0.020833042
-0.0095604072
0.025978222
-0.011956881
0.031903516
-0.014583146
0.038665762
-0.017448017
0.046323698
-0.020562227
0.054940029
-0.023938956
0.064585251
-0.027596257
-0.031415392
0.075310759
5.0770163e-05
0.00069304329
0.00026573753
0.0013746956
0.00070844526
0.0015362345
0.001439392
0.0012614791
0.0025174229
0.00060443133
0.0040004912
-0.0003952158
0.0059462547
-0.0017086427
0.0084124643
-0.0033162727
0.011457094
-0.0052057382
0.015138311
-0.0073701154
0.019514204
-0.0098064866
0.024642259
-0.012514771
0.03057862
-0.015496768
0.037377192
-0.018755454
0.045088707
-0.022294661
0.053760174
-0.026119485
0.063435698
-0.03023775
0.074159863
-0.03466312
0.08598668
-0.039423075
-0.044400602
0.098971891
0.00011382332
0.00057921999
0.00050861445
0.0009799045
0.001246242
0.00079860691
0.0023872596
0.00012046155
0.0039920288
-0.0010003379
0.0061210643
-0.0025242513
0.0088350139
-0.0044225922
0.012194481
-0.0066757402
0.016259621
-0.0092708782
0.021089393
-0.012199887
0.026740521
-0.015457614
0.033266168
-0.019040419
0.040714349
-0.022944948
0.049126117
-0.027167222
0.058533674
-0.031702217
0.068958737
-0.036544548
0.08041236
-0.041691373
0.09289805
-0.04714881
0.10642326
-0.05294829
-0.059009614
0.12103228
0.00017853004
0.00040068998
0.00076016898
0.0003982656
0.0018056606
-0.00024688468
0.0033753041
-0.0014491819
0.0055299497
-0.0031549835
0.0083307417
-0.0053250433
0.011838494
-0.007930344
0.016112764
-0.010950011
0.021210576
-0.01436869
0.027184793
-0.018174104
0.034082191
-0.022355013
0.041941256
-0.026899483
0.050789753
-0.031793446
0.060642091
-0.03701956
0.071496468
-0.042556594
0.083331863
-0.048379944
0.096105834
-0.054465344
0.10975585
-0.060798826
0.12421277
-0.067405212
-0.074289734
0.13949289
0.00024516802
0.0010201139
0.0023837179
0.0043945491
0.0071116496
0.010593527
0.014896571
0.020073129
0.026169261
0.03322224
0.041257951
0.050288336
0.060309026
0.071297253
0.083209851
0.095980755
0.10951628
0.12367755
0.13819777
0.15260255
-0.0035044385
-0.0019414867
-5.8280017e-10
-0.0012816682
-0.0022227696
-6.2155572e-10
0.0012000579
-0.0024817255
-6.3667216e-10
0.0038838345
-0.0026837759
-6.2313315e-10
0.0067428602
-0.0028590251
-5.8430064e-10
0.0097598348
-0.0030169741
-5.1269665e-10
0.012915829
-0.0031559933
-4.1544048e-10
0.016192823
-0.0032769941
-2.9256539e-10
0.019575121
-0.003382298
-1.4868847e-10
0.023048509
-0.0034733881
1.0220873e-11
0.026599706
-0.003551197
1.8185857e-10
0.030216292
-0.0036165866
3.6016421e-10
0.033886631
-0.0036703393
5.4147837e-10
0.037599733
-0.0037131024
7.1929959e-10
0.041345153
-0.0037454215
8.8986097e-10
0.045112929
-0.0037677769
1.0477583e-09
0.048893529
-0.003780601
1.1900885e-09
0.052677819
-0.0037842915
1.3127359e-09
0.056457044
-0.0037792264
1.4130962e-09
0.060222817
-0.0037657748
1.4869924e-09
0.063967122
-0.0037443064
1.530054e-09
0.067682318
-0.0037151975
1.5358455e-09
0.071361151
-0.0036788347
1.4963295e-09
0.074996767
-0.0036356174
1.4022707e-09
0.078582724
-0.003585958
1.2429465e-09
0.082113004
-0.0035302806
1.0098807e-09
0.085582022
-0.0034690189
6.9532602e-10
0.088984635
-0.0034026136
2.9984228e-10
0.092316144
-0.0033315085
-1.7238985e-10
0.095572291
-0.003256147
-7.0247072e-10
0.098749262
-0.0031769695
-1.2673284e-09
0.10184367
-0.0030944088
-1.825239e-09
0.10485256
-0.0030088886
-2.3355455e-09
0.10777339
-0.002920821
-2.7394146e-09
0.110604
-0.0028306057
-2.9915257e-09
0.11334263
-0.0027386298
-3.0312028e-09
0.1159879
-0.0026452694
-2.8315632e-09
0.11853879
-0.0025508917
-2.3510407e-09
0.12099466
-0.0024558638
-1.6106889e-09
0.12335521
-0.0023605524
-6.11477e-10
0.12562058
-0.0022653689
5.4716721e-10
0.12779127
-0.0021706908
1.7820938e-09
0.12986852
-0.0020772515
2.9183664e-09
0.13185357
-0.0019850583
3.8103652e-09
0.13375093
-0.0018973623
4.2559706e-09
0.13555939
-0.0018084587
4.1186743e-09
0.13730433
-0.0017449422
3.3128562e-09
0.1389414
-0.0016370768
1.9330233e-09
0.14067426
-0.0017328582
2.1919442e-10
-0.0013851132
-1.2807565e-09
0.0028580355
-0.0037629957
0.0049561898
-0.0043209239
0.0073001813
-0.004825717
0.0098275613
-0.0052111559
0.012517271
-0.0055487346
0.015356991
-0.0058566945
0.018329987
-0.0061289887
0.021419855
-0.0063668622
0.024612581
-0.0065750247
0.027895409
-0.0067562163
0.031256213
-0.0069120002
0.034683516
-0.0070438897
0.038166468
-0.0071532916
0.04169473
-0.0072413646
0.045258392
-0.0073090834
0.048847929
-0.0073573137
0.052454171
-0.0073868432
0.056068285
-0.007398405
0.059681762
-0.0073927035
0.063286423
-0.0073704357
0.066874423
-0.0073323067
0.070438266
-0.0072790401
0.073970816
-0.0072113855
0.07746532
-0.0071301208
0.080915414
-0.0070360526
0.084315147
-0.0069300129
0.087658982
-0.0068128546
0.090941814
-0.0066854454
0.094158966
-0.0065486608
0.097306196
-0.0064033763
0.10037969
-0.0062504618
0.10337605
-0.0060907735
0.10629231
-0.0059251499
0.1091259
-0.0057544073
0.11187463
-0.0055793377
0.11453671
-0.0054007093
0.11711071
-0.0052192689
0.11959557
-0.0050357469
0.12199058
-0.004850874
0.1242954
-0.0046653806
0.12651012
-0.0044800886
0.12863519
-0.0042957513
0.13067177
-0.0041138339
0.13262106
-0.0039343546
0.13448749
-0.0037637849
0.13626984
-0.0035908123
0.13799305
-0.0034681565
0.13961381
-0.0032578308
0.14133059
-0.0034496432
-0.0027677496
0.01502949
-0.0053352799
0.016861635
-0.0061530688
0.018916327
-0.0068804092
0.021123634
-0.0074184624
0.023471923
-0.0078970241
0.02595755
-0.0083423218
0.028567903
-0.0087393412
0.031289505
-0.0090884646
0.034111263
-0.0093967818
0.03702295
-0.0096679037
0.040014453
-0.0099035034
0.043075918
-0.010105354
0.046197826
-0.0102752
0.049370931
-0.010414469
0.052586209
-0.010524362
0.05583486
-0.010605965
0.059108303
-0.010660286
0.062398186
-0.010688289
0.065696401
-0.010690918
0.068995095
-0.010669129
0.072286696
-0.010623908
0.075563934
-0.010556279
0.078819865
-0.010467316
0.082047889
-0.010358144
0.085241773
-0.010229937
0.088395667
-0.010083908
0.09150412
-0.0099213069
0.094562084
-0.00974341
0.097564927
-0.0095515039
0.10050843
-0.0093468805
0.10338879
-0.0091308218
0.10620261
-0.0089045932
0.1089469
-0.0086694344
0.11161904
-0.0084265536
0.11421683
-0.0081771247
0.11673841
-0.007922287
0.11918229
-0.0076631503
0.12154734
-0.0074008018
0.1238328
-0.0071363306
0.12603825
-0.0068708278
0.12816368
-0.0066055228
0.13020947
-0.0063415449
0.13217673
-0.0060810848
0.13406656
-0.0058241885
0.13588324
-0.0055804646
0.13762567
-0.0053332388
0.13931781
-0.0051603007
0.14091868
-0.0048586972
0.14261618
-0.0051471489
-0.0041586459
0.032068821
-0.0065195694
0.033485092
-0.0075693394
0.035091759
-0.0084870769
0.036815848
-0.0091425514
0.038658049
-0.0097392251
0.040624667
-0.01030894
0.042708537
-0.010823211
0.044900141
-0.011280069
0.047191909
-0.011688549
0.049576618
-0.012052613
0.052046568
-0.012373454
0.05459381
-0.012652596
0.057210339
-0.01289173
0.059888122
-0.013092251
0.062619104
-0.013255344
0.06539525
-0.013382111
0.068208591
-0.013473626
0.071051259
-0.013530957
0.073915535
-0.013555194
0.076793881
-0.013547476
0.079678981
-0.013509008
0.082563773
-0.013441071
0.085441482
-0.013345025
0.088305649
-0.013222311
0.091150155
-0.013074442
0.093969241
-0.012902993
0.096757526
-0.012709592
0.099510016
-0.0124959
0.10222212
-0.012263603
0.10488963
-0.012014391
0.10750875
-0.011749944
0.11007608
-0.011471924
0.1125886
-0.011181958
0.11504368
-0.010881635
0.11743906
-0.010572502
0.11977283
-0.010256059
0.12204345
-0.0099337723
0.12424973
-0.0096070805
0.12639083
-0.0092774263
0.12846626
-0.0089462598
0.13047595
-0.0086152157
0.13242021
-0.0082858009
0.13430005
-0.0079609243
0.13611654
-0.0076406845
0.13787378
-0.0073377052
0.13957086
-0.0070303185
0.14123039
-0.0068198217
0.14281483
-0.006443138
0.14449687
-0.0068291947
-0.0055737482
0.052664593
-0.0071608762
0.05350625
-0.0084109966
0.054501503
-0.00948233
0.055584674
-0.010225722
0.056770588
-0.010925139
0.058073545
-0.011611897
0.059492064
-0.012241729
0.061021282
-0.012809287
0.062656995
-0.013324262
0.064394612
-0.01379023
0.066228619
-0.014207461
0.068152754
-0.014576731
0.07016026
-0.014899236
0.072244044
-0.015176035
0.074396767
-0.015408067
0.076610926
-0.01559627
0.078878939
-0.015741639
0.081193224
-0.015845242
0.083546266
-0.015908236
0.085930677
-0.015931886
0.088339245
-0.015917576
0.090764989
-0.015866814
0.093201188
-0.015781224
0.095641424
-0.015662548
0.098079609
-0.015512627
0.10051
-0.015333389
0.10292724
-0.01512683
0.10532634
-0.014894995
0.10770269
-0.01463996
0.11005211
-0.014363808
0.11237078
-0.014068613
0.11465528
-0.013756425
0.11690258
-0.013429259
0.11911002
-0.013089076
0.12127531
-0.012737791
0.12339652
-0.012377266
0.12547207
-0.012009318
0.12750072
-0.011635735
0.12948161
-0.011258315
0.13141422
-0.010878866
0.13329843
-0.010499432
0.13513453
-0.010121901
0.1369235
-0.0097498911
0.1386664
-0.0093835883
0.14036717
-0.0090384765
0.14202522
-0.0086883603
0.14366147
-0.0084560708
0.14524283
-0.0080245031
0.14692314
-0.0085094991
-0.0070363465
0.07524071
-0.0070908263
0.075346688
-0.0085169745
0.075572125
-0.0097077669
0.075873552
-0.01052715
0.076279017
-0.011330604
0.076805377
-0.012138257
0.077455674
-0.012892026
0.078229845
-0.013583457
0.079126205
-0.014220622
0.080141612
-0.014805638
0.081271831
-0.015337679
0.082511572
-0.015816472
0.083854659
-0.016242323
0.085294321
-0.016615697
0.086823391
-0.016937136
0.088434424
-0.017207303
0.090119814
-0.017427029
0.091871894
-0.017597322
0.093683033
-0.017719375
0.095545709
-0.017794562
0.097452571
-0.017824439
0.099396496
-0.017810739
0.10137064
-0.017755364
0.10336845
-0.017660362
0.10538374
-0.017527921
0.10741068
-0.01736033
0.10944383
-0.017159972
0.11147812
-0.016929285
0.11350891
-0.016670749
0.11553195
-0.016386851
0.1175434
-0.016080069
0.11953983
-0.015752853
0.12151818
-0.015407605
0.12347578
-0.015046675
0.12541033
-0.014672348
0.12731992
-0.014286853
0.12920297
-0.013892366
0.13105826
-0.013491031
0.13288496
-0.013085007
0.13468256
-0.012676468
0.136451
-0.01226787
0.13819059
-0.011861495
0.13990236
-0.011461663
0.14158746
-0.011068688
0.14324972
-0.010700738
0.14488898
-0.01032762
0.14652434
-0.010091431
0.14812787
-0.0096280327
0.14983209
-0.01021372
-0.0085785967
0.098045751
-0.0061646871
0.097279392
-0.0077506154
0.096604064
-0.0090324388
0.096020654
-0.0099437409
0.095565303
-0.010875253
0.095249247
-0.011822201
0.095077859
-0.012720638
0.095055148
-0.013560747
0.095180655
-0.014346129
0.095451122
-0.015076104
0.095862194
-0.015748752
0.096408471
-0.016362749
0.097083474
-0.016917326
0.097879979
-0.017412203
0.098790312
-0.017847469
0.099806511
-0.018223502
0.10092045
-0.018540968
0.10212396
-0.018800829
0.10340892
-0.019004336
0.10476736
-0.019153
0.1061915
-0.019248587
0.10767386
-0.019293096
0.10920724
-0.01928874
0.1107848
-0.019237922
0.11240008
-0.019143206
0.11404704
-0.019007292
0.11572005
-0.018832976
0.1174139
-0.018623133
0.11912382
-0.018380675
0.12084549
-0.018108522
0.12257501
-0.01780959
0.12430891
-0.017486747
0.12604412
-0.017142814
0.12777799
-0.016780544
0.12950826
-0.016402618
0.13123305
-0.016011646
0.13295087
-0.015610183
0.13466058
-0.015200744
0.13636143
-0.014785862
0.13805306
-0.014368094
0.13973551
-0.013950322
0.14140925
-0.013535234
0.14307544
-0.013127852
0.14473541
-0.012728662
0.14639301
-0.012358333
0.14804862
-0.011983232
0.14971947
-0.011762284
0.15138327
-0.011291829
0.15315004
-0.011980493
-0.010242276
0.11920934
-0.0043417462
0.11751751
-0.0060587847
0.11587882
-0.0073937538
0.11437719
-0.0084421129
0.11304887
-0.0095469257
0.11189135
-0.010664689
0.11091013
-0.011739414
0.11011148
-0.012762098
0.10949482
-0.013729473
0.10905557
-0.014636853
0.10878792
-0.015481103
0.10868522
-0.016260046
0.10873988
-0.016971982
0.10894359
-0.017615915
0.10928764
-0.018191521
0.1097631
-0.018698963
0.11036096
-0.01913882
0.1110722
-0.019512078
0.11188798
-0.019820109
0.11279961
-0.020064633
0.11379871
-0.020247689
0.11487722
-0.020371605
0.11602745
-0.02043897
0.11724213
-0.020452598
0.11851442
-0.020415496
0.11983795
-0.020330821
0.12120682
-0.02020185
0.12261563
-0.020031937
0.12405943
-0.019824477
0.12553379
-0.01958288
0.12703472
-0.019310528
0.12855874
-0.019010762
0.13010278
-0.018686856
0.13166424
-0.018342001
0.13324093
-0.017979306
0.13483108
-0.017601796
0.13643332
-0.017212428
0.1380467
-0.016814119
0.13967063
-0.0164098
0.14130497
-0.016002433
0.14295
-0.015595346
0.14460642
-0.015191657
0.14627566
-0.014797093
0.14795935
-0.014412354
0.14966146
-0.014060439
0.15138305
-0.013704825
0.15313953
-0.013518766
0.15491449
-0.013066782
0.15679533
-0.013861339
-0.012078708
0.13691446
-0.0017633118
0.13439711
-0.003541435
0.13183924
-0.0048358849
0.12948295
-0.0060858195
0.12735543
-0.0074194118
0.12543808
-0.0087473344
0.12373372
-0.010035055
0.12224745
-0.011275827
0.12097772
-0.012459747
0.11991877
-0.013577907
0.11906311
-0.014625437
0.11840238
-0.015599321
0.11792761
-0.016497211
0.11762927
-0.017317577
0.11749751
-0.01805976
0.11752232
-0.018723774
0.1176937
-0.019310197
0.11800173
-0.019820113
0.11843671
-0.020255084
0.11898918
-0.020617105
0.11965005
-0.020908555
0.1204106
-0.021132157
0.12126258
-0.021290946
0.12219819
-0.021388213
0.12321017
-0.021427471
0.12429175
-0.021412408
0.12543674
-0.021346838
0.12663947
-0.021234662
0.12789481
-0.021079823
0.1291982
-0.020886269
0.13054559
-0.020657917
0.13193345
-0.020398628
0.13335878
-0.020112177
0.13481902
-0.019802246
0.13631213
-0.019472415
0.1378365
-0.019126163
0.13939097
-0.018766895
0.1409748
-0.018397955
0.14258771
-0.018022714
0.14422985
-0.017644566
0.14590182
-0.017267315
0.14760469
-0.016894533
0.14934027
-0.01653267
0.1511106
-0.016182679
0.15291988
-0.015869726
0.15476999
-0.015554929
0.1566746
-0.015423384
0.15862332
-0.015015494
0.16068135
-0.015919375
-0.014147845
0.15006739
0.00077185087
0.14677894
-0.0002529905
0.1434822
-0.0015391403
0.14043508
-0.0030386984
0.1376409
-0.0046252376
0.13509343
-0.0061998573
0.13279449
-0.0077361174
0.13074418
-0.0092255192
0.12894007
-0.010655636
0.12737696
-0.012014797
0.12604703
-0.013295511
0.12494089
-0.01449318
0.12404837
-0.015604685
0.12335881
-0.016628017
0.12286124
-0.01756219
0.12254456
-0.018407093
0.1223977
-0.019163341
0.12240977
-0.019832181
0.12257012
-0.020415431
0.12286843
-0.020915422
0.12329482
-0.021334946
0.12383986
-0.021677198
0.12449464
-0.021945726
0.12525081
-0.022144379
0.12610059
-0.022277254
0.12703683
-0.022348641
0.12805296
-0.022362972
0.12914306
-0.022324766
0.13030183
-0.022238589
0.13152456
-0.022108998
0.13280715
-0.021940511
0.13414609
-0.02173757
0.13553844
-0.021504519
0.13698177
-0.021245582
0.13847422
-0.020964865
0.14001441
-0.020666353
0.14160146
-0.020353938
0.14323494
-0.020031443
0.14491494
-0.01970271
0.14664198
-0.019371604
0.1484171
-0.01904244
0.15024184
-0.018719266
0.15211845
-0.018409283
0.15404948
-0.018113707
0.15603955
-0.017859797
0.1580912
-0.017606588
0.16021708
-0.017549257
0.16241108
-0.017209497
0.16472154
-0.018229839
-0.016514378
0.18893173
0.0053729824
-0.19353286
0.18512263
0.0035561103
0.18173156
0.001851933
0.17858744
0.0001054194
0.17565294
-0.0016907313
0.17290301
-0.003449933
0.17031945
-0.005152557
0.16789327
-0.0067993355
0.16562058
-0.008382954
0.16349925
-0.0098934669
0.16152742
-0.011323679
0.15970298
-0.012668743
0.15802331
-0.013925009
0.15648511
-0.015089817
0.15508447
-0.016161555
0.15381694
-0.017139564
0.1526776
-0.018024002
0.15166117
-0.018815747
0.15076208
-0.019516337
0.14997456
-0.020127907
0.14929274
-0.020653125
0.14871068
-0.021095137
0.14822245
-0.021457499
0.1478222
-0.021744127
0.14750418
-0.02195923
0.14726279
-0.022107253
0.14709263
-0.022192815
0.14698852
-0.022220655
0.14694551
-0.022195579
0.14695892
-0.022122405
0.14702433
-0.022005922
0.14713761
-0.021850856
0.14729493
-0.021661838
0.14749274
-0.021443387
0.14772778
-0.021199902
0.14799709
-0.020935665
0.14829801
-0.020654863
0.14862819
-0.020361621
0.14898557
-0.020060088
0.14936841
-0.019754445
0.14977533
-0.019449357
0.15020527
-0.01914921
0.15065771
-0.018861718
0.15113235
-0.018588349
0.15163018
-0.01835763
0.15215124
-0.018127645
0.15270095
-0.018098963
0.1532741
-0.017782647
0.15389797
-0.018853709
-0.017147946
0.21687985
0.0087703524
-0.22027722
0.21340697
0.0070289914
0.21019517
0.0050637277
0.20709092
0.0032096731
0.20404543
0.0013547621
0.20108965
-0.00049416046
0.19824049
-0.0023033944
0.19550246
-0.0040613013
0.19288146
-0.0057619544
0.19038433
-0.0073963401
0.18801628
-0.0089556319
0.18578072
-0.010433181
0.18367965
-0.011823934
0.18171377
-0.013123939
0.17988256
-0.014330346
0.17818441
-0.01544141
0.17661677
-0.016456368
0.17517635
-0.017375329
0.17385922
-0.018199198
0.17266091
-0.018929605
0.17157662
-0.019568831
0.17060122
-0.020119736
0.16972941
-0.020585689
0.16895578
-0.020970496
0.16827488
-0.021278332
0.1676813
-0.021513674
0.16716971
-0.021681226
0.16673492
-0.021785861
0.1663719
-0.021832557
0.16607583
-0.021826337
0.16584213
-0.021772225
0.16566647
-0.021675198
0.16554479
-0.021540157
0.16547331
-0.021371901
0.16544852
-0.02117512
0.16546725
-0.020954391
0.16552659
-0.020714205
0.16562396
-0.020458995
0.1657571
-0.020193228
0.16592407
-0.019921416
0.16612329
-0.019648577
0.16635357
-0.019379483
0.16661412
-0.019122272
0.16690472
-0.018878948
0.16722556
-0.018678467
0.16757812
-0.018480214
0.16796241
-0.018483251
0.16838625
-0.018206481
0.16883492
-0.019302382
-0.017663945
0.24378726
0.011493399
-0.24651031
0.24093778
0.0098784704
0.23808555
0.0079159591
0.23523962
0.0060556098
0.2323629
0.0042314827
0.22947621
0.0023925241
0.22661078
0.00056203336
0.22378591
-0.0012364326
0.22101753
-0.0029935682
0.21832157
-0.004700378
0.21571189
-0.0063459588
0.21319952
-0.0079208029
0.21079305
-0.0094174712
0.20849907
-0.010829958
0.20632222
-0.01215349
0.20426538
-0.01338457
0.20232992
-0.014520911
0.2005159
-0.015561308
0.19882224
-0.016505543
0.19724694
-0.017354299
0.19578718
-0.018109076
0.19443955
-0.018772101
0.1932001
-0.019346245
0.19206455
-0.019834938
0.1910283
-0.020242087
0.19008662
-0.020571996
0.18923468
-0.020829283
0.18846762
-0.021018807
0.18778067
-0.021145598
0.18716912
-0.021214786
0.18662844
-0.021231546
0.18615428
-0.021201046
0.18574254
-0.021128408
0.18538931
-0.021018679
0.18509101
-0.020876813
0.18484429
-0.02070767
0.18464612
-0.020516038
0.18449378
-0.020306657
0.18438487
-0.020084318
0.18431733
-0.019853873
0.18428945
-0.019620693
0.18429994
-0.019389974
0.18434785
-0.019170189
0.18443306
-0.018964154
0.18455497
-0.018800378
0.18471665
-0.018641898
0.18491225
-0.018678842
0.18516372
-0.018457955
0.1854091
-0.01954776
-0.018039706
0.269293
0.013525572
-0.27132518
0.26712579
0.012045684
0.2647849
0.010256852
0.26234658
0.0084939206
0.25981881
0.0067592569
0.25721175
0.0049995815
0.25455154
0.0032222509
0.25186233
0.0014527699
0.24916415
-0.00029538244
0.24647679
-0.0020130211
0.24381956
-0.0036887262
0.24120959
-0.0053108361
0.23866162
-0.0068695046
0.23618816
-0.0083564893
0.23379949
-0.0097648241
0.2315038
-0.011088879
0.22930728
-0.012324389
0.22721433
-0.013468363
0.22522778
-0.01451899
0.22334903
-0.015475548
0.22157827
-0.016338318
0.21991466
-0.017108487
0.21835646
-0.017788053
0.21690125
-0.018379728
0.21554601
-0.018886842
0.21428727
-0.019313255
0.21312124
-0.019663255
0.21204391
-0.01994148
0.21105114
-0.02015283
0.21013874
-0.020302385
0.20930254
-0.020395347
0.20853846
-0.020436966
0.20784256
-0.020432503
0.20721106
-0.020387183
0.20664043
-0.020306177
0.20612735
-0.02019459
0.20566879
-0.02005748
0.20526201
-0.019899884
0.2049046
-0.019726901
0.20459445
-0.01954373
0.20432985
-0.019356084
0.20410948
-0.019169612
0.20393234
-0.018993041
0.20379839
-0.01883021
0.20370647
-0.018708454
0.20366091
-0.018596338
0.20365084
-0.01866877
0.20371007
-0.018517188
0.20373395
-0.019571644
-0.01825256
0.2930016
0.014856118
-0.29433215
0.291523
0.013524288
0.28980119
0.011978658
0.28790329
0.010391819
0.28586418
0.0087983734
0.28369466
0.0071690958
0.28141316
0.005503749
0.27904293
0.0038230038
0.27660527
0.0021422802
0.27412034
0.00047190842
0.27160835
-0.0011767368
0.26908903
-0.0027915215
0.26658073
-0.0043611957
0.26410002
-0.0058757856
0.26166167
-0.007326474
0.25927845
-0.0087056573
0.25696113
-0.010007067
0.25471854
-0.011225772
0.25255767
-0.012358124
0.25048382
-0.013401698
0.24850072
-0.014355221
0.24661073
-0.015218491
0.24481496
-0.01599228
0.24311347
-0.016678241
0.24150543
-0.017278801
0.23998924
-0.017797069
0.23856271
-0.018236725
0.23722316
-0.018601929
0.23596755
-0.018897223
0.23479261
-0.019127443
0.2336949
-0.019297638
0.23267093
-0.019412998
0.23171722
-0.019478794
0.23083037
-0.019500331
0.23000711
-0.019482911
0.22924434
-0.019431824
0.22853921
-0.01935235
0.22788911
-0.019249784
0.22729173
-0.019129516
0.22674507
-0.018997071
0.22624748
-0.018858494
0.22579776
-0.018719892
0.2253949
-0.018590186
0.22503905
-0.01847436
0.22472864
-0.018398044
0.22446891
-0.018336605
0.22424512
-0.018444986
0.22409987
-0.018371933