/*--------------------------------*- C++ -*----------------------------------*\
  =========                 |
  \\      /  F ield         | OpenFOAM: The Open Source CFD Toolbox
   \\    /   O peration     | Website:  https://openfoam.org
    \\  /    A nd           | Version:  6
     \\/     M anipulation  |
\*---------------------------------------------------------------------------*/
FoamFile
{
    version     2.0;
    format      ascii;
    class       volVectorField;
    location    "94";
    object      U;
}
// * * * * * * * * * * * * * * * * * * * * * * * * * * * * * * * * * * * * * //

dimensions      [0 1 -1 0 0 0 0];

internalField   nonuniform List<vector> 
9200
(
(0.0010402608 0.0014194991 -5.9209079e-20)
(0.013680054 -0.0020604777 4.6048952e-20)
(0.038321822 -0.0058702704 -3.8506889e-20)
(0.072289036 -0.0097688195 -6.0265416e-20)
(0.11378634 -0.013496997 1.8829752e-20)
(0.16161036 -0.016614301 3.274836e-20)
(0.21470955 -0.018827611 -1.2269966e-20)
(0.27211327 -0.019985911 9.2703837e-21)
(0.33291287 -0.020024958 1.6805477e-20)
(0.39622967 -0.018944539 1.4850145e-21)
(0.46119116 -0.016797114 -2.1459606e-20)
(0.52692146 -0.013676926 2.0673295e-20)
(0.5925436 -0.009709201 -4.042823e-20)
(0.65719162 -0.0050391273 -2.1137639e-20)
(0.72003127 0.00017989704 5.9056395e-21)
(0.78028646 0.0057959306 -2.5136719e-20)
(0.83728543 0.011681944 2.5222779e-20)
(0.89058537 0.017884704 2.2250718e-20)
(0.9397875 0.024536452 -2.9786216e-22)
(0.98216755 0.028253502 -1.6673566e-21)
(0.0052537377 -0.0013471126 -1.7061419e-20)
(0.026968415 -0.008992018 3.9752875e-20)
(0.061682013 -0.014814635 2.3579429e-20)
(0.10631404 -0.019178877 -1.1571129e-19)
(0.15876305 -0.022222267 -1.2728838e-20)
(0.21756994 -0.023730552 7.3305594e-20)
(0.28141894 -0.023606508 -3.5480914e-20)
(0.34906183 -0.021881898 -8.3916054e-21)
(0.41930486 -0.018659987 3.4292196e-20)
(0.49098463 -0.014096882 -4.3265885e-20)
(0.56295644 -0.0083936594 -3.0343461e-20)
(0.63410062 -0.0017861018 7.1934502e-20)
(0.70334231 0.0054669184 3.8300901e-20)
(0.76968029 0.013094985 -6.7990337e-20)
(0.83222083 0.020826041 1.4627121e-20)
(0.89021098 0.028391036 -3.6741899e-20)
(0.94308032 0.035538148 -1.3779715e-20)
(0.99054236 0.042106286 7.099485e-20)
(1.0324635 0.047677511 2.9654176e-20)
(1.0670385 0.049099063 -8.3491238e-20)
(0.010860761 -0.0040435635 3.677754e-20)
(0.043961584 -0.015434783 2.5050214e-21)
(0.090531013 -0.022558029 2.2344746e-20)
(0.14713555 -0.026504838 9.8127711e-22)
(0.21137613 -0.027895326 -4.0779539e-20)
(0.28151125 -0.026805552 1.8578291e-20)
(0.35592422 -0.023394484 1.3422136e-20)
(0.43305404 -0.017934579 -5.0334263e-20)
(0.51139846 -0.010750012 5.726989e-20)
(0.58950875 -0.0021996584 1.4259334e-20)
(0.66599961 0.0073305538 -5.4310363e-20)
(0.73957725 0.017441127 -1.8241465e-20)
(0.80907773 0.02773539 9.0586432e-21)
(0.87350751 0.037835786 2.3450036e-20)
(0.93207985 0.047397965 -1.1365672e-20)
(0.98423955 0.056120038 2.7884317e-20)
(1.0296779 0.063757156 -2.0192618e-20)
(1.0683652 0.070169111 -7.014237e-20)
(1.1004284 0.075080769 -2.3803557e-20)
(1.1250024 0.076599631 4.8668687e-20)
(0.017960454 -0.0064235451 2.4510541e-20)
(0.064787713 -0.020698986 5.1044822e-20)
(0.12487189 -0.028067081 1.9883789e-20)
(0.19449913 -0.030471889 1.2991086e-20)
(0.27098924 -0.029103982 1.7277375e-20)
(0.35229942 -0.024399254 -4.7725647e-20)
(0.43649256 -0.01683729 -2.5650063e-20)
(0.52169125 -0.0069890358 0)
(0.60610919 0.004553519 1.3924085e-20)
(0.68807509 0.017196885 -5.8546345e-21)
(0.76606941 0.030357484 -9.7952044e-20)
(0.83877316 0.043481296 -1.5776716e-20)
(0.90511654 0.056066046 6.5117937e-20)
(0.96431773 0.067680998 4.8273715e-22)
(1.0159045 0.077981708 -1.5729273e-21)
(1.0597141 0.086717667 2.1962807e-20)
(1.0958721 0.093739807 -5.2664132e-21)
(1.1247702 0.099029519 -6.1044725e-20)
(1.1469497 0.10255788 -4.5863712e-20)
(1.1623752 0.10337155 6.9533978e-20)
(0.026583676 -0.0082072029 -3.9196961e-21)
(0.089357502 -0.024037873 -5.1261328e-21)
(0.16433138 -0.030271237 5.6605073e-20)
(0.24761606 -0.029817577 1.8541059e-20)
(0.33628773 -0.024521574 -3.1958471e-20)
(0.42800844 -0.015249217 1.2165167e-20)
(0.52054024 -0.0028614867 2.6406358e-21)
(0.61174057 0.011726112 3.361453e-20)
(0.69963204 0.02762809 5.6608858e-21)
(0.78245951 0.044015341 -1.3207964e-20)
(0.85874948 0.06013255 6.016777e-20)
(0.92736684 0.075323153 -5.8019649e-20)
(0.9875549 0.089053009 -1.3219411e-19)
(1.0389499 0.10092629 -5.5785479e-21)
(1.0815665 0.11069121 8.3170427e-20)
(1.1157556 0.11823484 0)
(1.1421402 0.12357321 1.0121079e-20)
(1.1615471 0.12685456 -1.5463485e-20)
(1.1748928 0.12825944 -8.6016684e-21)
(1.182737 0.12740687 2.0996584e-20)
(0.036672261 -0.0090911012 -5.4310295e-21)
(0.11733147 -0.02468955 4.3582801e-21)
(0.20814679 -0.028145915 -8.763799e-21)
(0.30519712 -0.0234216 2.8475159e-20)
(0.40538725 -0.013082835 -2.9396009e-20)
(0.50613438 0.0015148891 -1.6929128e-20)
(0.60497771 0.019086868 3.7367946e-20)
(0.69963073 0.038356212 4.7597666e-21)
(0.78809151 0.058157478 -2.4441778e-20)
(0.86872603 0.077471278 6.9880098e-20)
(0.94033401 0.095444887 5.2243382e-22)
(1.0021901 0.11141533 -8.0462088e-20)
(1.05405 0.12492379 0)
(1.0961175 0.13571521 3.9551648e-20)
(1.1289784 0.14372279 5.5250161e-21)
(1.1535094 0.14903987 -7.7583835e-20)
(1.1707757 0.15188671 -1.9591281e-20)
(1.1819339 0.15258803 -1.247041e-20)
(1.1881259 0.1514874 -1.4712798e-20)
(1.1902082 0.14854351 4.0429351e-20)
(0.048065357 -0.0087687867 -1.7279137e-20)
(0.14810235 -0.021935624 -2.2207841e-21)
(0.25517291 -0.02080251 3.0382933e-20)
(0.36550875 -0.01041789 3.7487237e-20)
(0.47596104 0.0058963024 -1.9946808e-20)
(0.58381017 0.02626382 -6.9172102e-20)
(0.68651836 0.048971299 -2.8000509e-20)
(0.78184552 0.072411063 7.8941522e-20)
(0.86799022 0.095204433 8.5804097e-21)
(0.94367998 0.1162397 -2.4877246e-20)
(1.0082171 0.13468596 1.3643465e-20)
(1.061477 0.1500004 -4.3208443e-21)
(1.1038564 0.16191825 0)
(1.1361807 0.17042255 2.7209063e-20)
(1.1595833 0.17569793 -7.9338929e-20)
(1.175376 0.17807517 -3.1482112e-20)
(1.1849261 0.17797641 8.1071577e-20)
(1.1895567 0.17587479 -4.2982955e-21)
(1.1904633 0.17221825 3.5567303e-21)
(1.1885645 0.16715322 2.711787e-20)
(0.060492869 -0.0069584469 -3.2416718e-20)
(0.18079972 -0.015173051 -8.1631484e-20)
(0.30392525 -0.0075866074 2.5788768e-21)
(0.42647463 0.0097003889 7.0169236e-20)
(0.54541232 0.032628778 6.2431536e-20)
(0.65805181 0.05881726 -7.1582301e-20)
(0.76198745 0.086173298 -2.8147662e-22)
(0.85526701 0.1128481 8.5537484e-20)
(0.93654066 0.13737253 4.8836233e-20)
(1.0051296 0.1586856 -5.422874e-20)
(1.0610226 0.17612475 -9.2351617e-20)
(1.1048087 0.18939948 -3.159587e-21)
(1.1375567 0.19854197 4.2135998e-20)
(1.1606639 0.20383763 -6.6069556e-21)
(1.1756967 0.20574587 -1.2871192e-20)
(1.1842451 0.20482167 1.9694294e-20)
(1.1878058 0.20164852 4.3889268e-20)
(1.1877045 0.19679281 -4.3867791e-20)
(1.185051 0.19074344 -1.0234294e-19)
(1.1806774 0.18373632 2.4572743e-20)
(0.073545899 -0.0034335978 -3.4982991e-20)
(0.21425135 -0.0039903591 -1.7389755e-19)
(0.35255574 0.011838366 8.2112511e-20)
(0.48568036 0.037017981 9.2777673e-20)
(0.61091747 0.066835704 5.7977005e-20)
(0.72583995 0.098481403 8.611942e-21)
(0.82842722 0.12959662 -1.0625502e-19)
(0.91727313 0.15824105 0)
(0.99171215 0.18302448 -6.8761649e-20)
(1.0518363 0.20310573 -1.5205567e-20)
(1.0984204 0.21813913 5.4713361e-20)
(1.1327795 0.22819792 1.0975461e-20)
(1.1565857 0.23367618 -4.5622157e-20)
(1.1716772 0.2351796 -4.9090116e-20)
(1.1798865 0.23342025 2.4292437e-20)
(1.1829071 0.22912718 4.4831679e-20)
(1.1822072 0.22298118 -5.5611156e-20)
(1.178991 0.21557724 -1.0753154e-19)
(1.1741988 0.20738924 -3.151308e-21)
(1.1685059 0.19868402 2.7051492e-20)
(0.086660072 0.001961371 -3.5459535e-21)
(0.24698674 0.011816972 8.7920848e-20)
(0.39888907 0.037493763 -1.6476185e-20)
(0.54045935 0.071220995 -8.432041e-20)
(0.66956431 0.10779227 4.5170209e-20)
(0.78429271 0.14411881 4.9180484e-20)
(0.88326775 0.17775924 5.5365499e-21)
(0.96585962 0.20688578 -9.9518046e-20)
(1.0322575 0.23038644 -2.5053023e-21)
(1.0834125 0.2478109 5.0512454e-20)
(1.1208838 0.25925495 5.9865376e-21)
(1.1466289 0.26522456 -1.972081e-20)
(1.1627799 0.26649018 -7.5717822e-20)
(1.1714416 0.26394775 -6.2562133e-21)
(1.1745374 0.2585028 4.3540766e-20)
(1.1737124 0.25098671 3.7028274e-20)
(1.1702927 0.24210743 1.9796317e-20)
(1.1652918 0.2324302 -5.3005895e-20)
(1.1594504 0.22237386 1.2957791e-20)
(1.1532718 0.21220612 8.2673239e-20)
(-0.0012934494 0.0014348702 -1.1234102e-21)
(-0.0047466267 0.003187848 2.0649389e-21)
(-0.010772807 0.004136434 8.8014797e-22)
(-0.017756587 0.0045400826 -2.44107e-21)
(-0.024743408 0.0045659262 -1.4120352e-21)
(-0.031303352 0.004326474 1.5464646e-21)
(-0.0371656 0.0039038735 -6.8717811e-21)
(-0.042152049 0.0033579387 -5.958631e-21)
(-0.046162521 0.002731466 1.1174625e-20)
(-0.049150868 0.0020547723 -9.7450602e-21)
(-0.051105053 0.0013490894 -1.9831332e-22)
(-0.052034345 0.00062904918 3.6683327e-21)
(-0.051960917 -9.5433308e-05 -6.3307258e-22)
(-0.050914107 -0.0008176553 2.282469e-20)
(-0.048926809 -0.0015327616 3.0400505e-22)
(-0.046034929 -0.0022362944 -4.0894239e-20)
(-0.042279682 -0.0029236038 7.5408711e-21)
(-0.037699353 -0.0035926023 2.3871048e-20)
(-0.032302342 -0.0042417911 -4.3865582e-20)
(-0.026148049 -0.0048231596 -2.7747782e-20)
(-0.0016524302 0.0041814631 -5.3726233e-21)
(-0.005398199 0.0092693718 1.0866607e-20)
(-0.011219926 0.01200895 -1.0193312e-20)
(-0.017660152 0.01315531 3.9242642e-21)
(-0.023859163 0.013196841 4.8135874e-21)
(-0.029436494 0.012463925 7.1342569e-22)
(-0.034155754 0.011197911 -2.2514858e-20)
(-0.037863854 0.009574437 -2.0374927e-21)
(-0.040477589 0.0077191291 2.0168199e-20)
(-0.041961786 0.0057209411 -5.0485309e-21)
(-0.042311138 0.0036421153 -2.1767808e-20)
(-0.041538591 0.0015254761 4.8985032e-21)
(-0.039667764 -0.0006000576 2.2640779e-20)
(-0.036727652 -0.0027150587 1.0311027e-20)
(-0.032748835 -0.0048055651 2.1860259e-20)
(-0.027763898 -0.0068589978 -1.9776089e-20)
(-0.021817135 -0.0088623587 -2.1678885e-20)
(-0.014955899 -0.010809051 2.1191049e-20)
(-0.0071155701 -0.01268455 2.6818169e-20)
(0.001891273 -0.014323493 1.5859082e-20)
(-0.0023037309 0.0065611375 -4.3576585e-21)
(-0.0065400173 0.014482054 -5.6392227e-21)
(-0.011893456 0.018712797 3.0718965e-22)
(-0.017212853 0.020430466 1.0957087e-21)
(-0.021821138 0.020402393 6.6931843e-21)
(-0.025433052 0.019153347 1.0667296e-20)
(-0.027879003 0.017067457 -3.7235855e-21)
(-0.029054525 0.014424353 -1.8900252e-20)
(-0.028909487 0.011424256 6.5427656e-21)
(-0.02743039 0.0082090884 1.2865422e-20)
(-0.024625626 0.0048781903 5.8356588e-21)
(-0.020516264 0.0014998378 1.8163099e-20)
(-0.015130041 -0.0018801259 1.7300054e-21)
(-0.0084969973 -0.0052314222 -3.3872567e-20)
(-0.00064566236 -0.0085327501 1.2026349e-21)
(0.0083954636 -0.011765273 -2.2144243e-20)
(0.018574931 -0.014911345 -2.4473276e-20)
(0.029824267 -0.017962151 4.5832761e-20)
(0.042331541 -0.02086472 2.535705e-20)
(0.056770326 -0.023258548 1.2302076e-22)
(-0.0031294072 0.0083700667 -5.2843079e-21)
(-0.0078972466 0.018338734 -8.4840591e-21)
(-0.012440113 0.023590466 4.3599781e-21)
(-0.016027686 0.025612293 4.1471461e-21)
(-0.018235898 0.02538504 2.0109071e-21)
(-0.018912925 0.023591052 7.3225327e-21)
(-0.017984047 0.020731278 9.3143669e-21)
(-0.015414739 0.01717054 -1.3514031e-21)
(-0.011203401 0.013170542 -1.1484263e-20)
(-0.0053695253 0.0089171501 -2.9078014e-20)
(0.0020562827 0.0045405799 6.2030537e-23)
(0.011037559 0.00013031427 4.0706628e-20)
(0.021536585 -0.0042541512 -1.8386916e-20)
(0.033515964 -0.0085740557 -1.2298888e-20)
(0.046942836 -0.012803359 5.5321932e-22)
(0.061787101 -0.016921089 3.2310646e-20)
(0.077985181 -0.020912408 -1.4834004e-20)
(0.095430064 -0.024775711 -5.3352612e-20)
(0.11444241 -0.028393728 4.5776607e-20)
(0.13639641 -0.031088723 3.3021796e-20)
(-0.0039708461 0.0094668861 -6.8783055e-22)
(-0.0090924815 0.020490066 -1.2536778e-20)
(-0.012365233 0.026161736 -3.4150967e-20)
(-0.013552808 0.028145852 -5.7254604e-21)
(-0.012532578 0.027557023 -3.6227017e-21)
(-0.0093146934 0.025189324 6.306299e-21)
(-0.0039417987 0.021627727 -4.6470803e-21)
(0.0035322438 0.01729819 -8.808593e-21)
(0.01304567 0.012506786 2.1903745e-20)
(0.024533301 0.0074711891 5.0574846e-21)
(0.037931295 0.0023442801 -2.5295722e-20)
(0.053177396 -0.0027688561 1.1080311e-20)
(0.070211519 -0.0077984716 0)
(0.088976446 -0.012700504 1.2092123e-20)
(0.10942103 -0.017447808 -9.7037227e-21)
(0.13149925 -0.022022562 -1.4340554e-20)
(0.15512265 -0.026423186 -1.5732192e-21)
(0.1801234 -0.03067595 -2.2190844e-21)
(0.20691691 -0.03459516 4.6156851e-20)
(0.23773576 -0.037040521 -1.047411e-20)
(-0.0046455429 0.0097819398 -7.5367443e-21)
(-0.0096779105 0.020749894 2.4520626e-20)
(-0.011064543 0.026163196 -1.0501336e-20)
(-0.0090958754 0.027726351 -2.7473931e-20)
(-0.0039770647 0.026602911 -2.7552538e-20)
(0.0041011012 0.023648661 -1.4924108e-20)
(0.014961885 0.019495546 -6.9069836e-22)
(0.028447341 0.014602477 5.550835e-21)
(0.044418175 0.0092997781 1.9619033e-20)
(0.062750002 0.0038232043 7.3543609e-21)
(0.083328853 -0.0016616007 -7.1874114e-21)
(0.1060491 -0.0070408045 -2.0103068e-21)
(0.13080982 -0.012239467 -3.8199006e-20)
(0.15751235 -0.017212009 -1.2696116e-20)
(0.18606208 -0.021933963 1.8754961e-20)
(0.2163695 -0.026396007 -2.102647e-20)
(0.24829804 -0.030620668 -8.9750113e-21)
(0.28159292 -0.034691327 3.0446254e-20)
(0.31669 -0.038387953 5.0482319e-20)
(0.35674262 -0.039989604 3.3567986e-21)
(-0.0049621495 0.0093148833 1.6785536e-20)
(-0.0091665675 0.019099184 1.44699e-20)
(-0.0078586196 0.023564773 5.1153398e-20)
(-0.0018559444 0.0243298 2.3391844e-20)
(0.0083008911 0.022523728 1.8254818e-22)
(0.022230366 0.019013153 -3.9394746e-20)
(0.039609786 0.014438331 -2.4317811e-20)
(0.060164805 0.0092622292 1.0467367e-20)
(0.083661197 0.00381745 1.4403844e-20)
(0.10989456 -0.001658829 -1.3115515e-20)
(0.13867987 -0.0070003836 -4.4046211e-20)
(0.16984287 -0.012094152 2.9623703e-20)
(0.20321267 -0.016867476 2.0023771e-20)
(0.238616 -0.021279406 -2.7556169e-20)
(0.27587717 -0.025313986 1.1652512e-20)
(0.31482162 -0.028977 2.4202264e-20)
(0.35522784 -0.032325212 8.0741992e-21)
(0.39672522 -0.03553126 -1.1767123e-20)
(0.43967725 -0.038419807 -1.4192379e-20)
(0.48809454 -0.038664189 5.8762766e-21)
(-0.0047310023 0.0081242753 1.1095461e-20)
(-0.0070582894 0.015671891 -2.3356725e-20)
(-0.0020273369 0.018562326 8.6209189e-21)
(0.0090372415 0.018215688 3.3593231e-20)
(0.02526463 0.015649466 5.2132226e-20)
(0.046078948 0.011692538 2.0279559e-20)
(0.07100222 0.0069563333 -5.8649244e-21)
(0.099625433 0.0018766434 -1.2287933e-20)
(0.13159887 -0.003235304 -6.206882e-21)
(0.16661266 -0.0081596544 3.4246117e-20)
(0.20437884 -0.012745292 -4.5115663e-21)
(0.24461754 -0.016893212 -1.6646246e-20)
(0.28704588 -0.02054484 -1.9696606e-20)
(0.33136996 -0.02367477 -4.745206e-20)
(0.37728353 -0.026286165 2.3242805e-20)
(0.42447563 -0.028410834 -1.4098683e-20)
(0.47259653 -0.030152991 2.5998896e-20)
(0.52114153 -0.031811016 2.1045111e-20)
(0.57032729 -0.033381101 -8.558389e-20)
(0.62483008 -0.032092022 -1.0728329e-22)
(-0.0037710178 0.0063148999 2.1927949e-20)
(-0.0028645585 0.010734906 -2.6169618e-20)
(0.007145851 0.011563125 -4.501971e-20)
(0.024457633 0.0099228519 -2.7257781e-20)
(0.047882869 0.0066487966 -2.0442776e-21)
(0.076646213 0.0024855575 1.3051664e-20)
(0.11010053 -0.0020221365 -2.8339373e-21)
(0.14768286 -0.006496428 1.8120964e-20)
(0.18889941 -0.010673893 8.8696118e-21)
(0.23329858 -0.014374749 -1.1381759e-20)
(0.28044675 -0.017483283 8.8796876e-21)
(0.32991022 -0.019933214 -2.3906954e-20)
(0.38124208 -0.02169725 8.0521922e-21)
(0.43397321 -0.022780645 1.675934e-20)
(0.48761061 -0.023217366 -2.639985e-21)
(0.54164692 -0.023072325 1.6621409e-21)
(0.59554313 -0.022497307 -3.1939885e-22)
(0.64863262 -0.021900429 1.959424e-20)
(0.7009432 -0.021477943 4.0441219e-21)
(0.75757712 -0.018534742 -5.7734344e-22)
(-0.0019106051 0.0040272389 2.3695486e-20)
(0.0038718493 0.0046753656 5.7168492e-20)
(0.020321244 0.0031855847 -4.9251035e-20)
(0.045188952 0.00029065001 -9.9467867e-21)
(0.076981585 -0.0034294756 2.0258898e-20)
(0.11471934 -0.0073605622 2.1436485e-21)
(0.15756941 -0.011063659 -2.9818967e-20)
(0.20478703 -0.014254623 6.9855171e-21)
(0.25569689 -0.016750245 7.111037e-21)
(0.30966118 -0.018441156 -2.6257912e-20)
(0.36605218 -0.019276235 1.2929976e-21)
(0.42423456 -0.019250009 -3.7179971e-20)
(0.48355506 -0.01839243 -3.6347137e-20)
(0.54333834 -0.016760683 6.5695371e-20)
(0.60288881 -0.014431998 5.5638482e-21)
(0.66149665 -0.011503003 -1.5192441e-20)
(0.71842171 -0.0081316765 1.9367618e-20)
(0.7728177 -0.0046251217 -9.1905802e-22)
(0.82421046 -0.0010030595 2.0366435e-20)
(0.87634353 0.0042901194 -1.9560231e-20)
(-0.018824349 -0.0051019122 5.8370881e-20)
(-0.010208734 -0.0056373754 1.5788477e-20)
(-0.00020081265 -0.0060715623 -3.5150971e-20)
(0.010848632 -0.006336992 1.6796384e-20)
(0.022673436 -0.0065151179 0)
(0.035214976 -0.0066333452 0)
(0.048413464 -0.0066944058 -2.2983588e-20)
(0.062189202 -0.0067061413 -1.6509084e-20)
(0.076471797 -0.0066779379 1.9130639e-20)
(0.091201765 -0.0066165849 1.8181677e-20)
(0.10632416 -0.0065272745 1.0527396e-21)
(0.12178719 -0.0064145709 -1.0321832e-20)
(0.1375426 -0.0062824334 8.3312466e-21)
(0.1535452 -0.0061342101 1.8241486e-20)
(0.16975226 -0.0059727653 -5.2307264e-21)
(0.18612317 -0.0058005851 -1.0179357e-20)
(0.20261921 -0.0056198419 -4.3214762e-21)
(0.21920342 -0.0054324457 -4.4272546e-21)
(0.23584041 -0.0052400899 7.3683329e-22)
(0.25249638 -0.0050442858 1.2293224e-21)
(0.26913907 -0.0048463899 2.5687074e-21)
(0.28573777 -0.0046476233 6.6579846e-21)
(0.30226338 -0.0044490864 2.4809302e-22)
(0.31868845 -0.0042517703 -3.453979e-21)
(0.33498727 -0.0040565641 1.5545717e-22)
(0.35113588 -0.0038642609 -5.7758666e-22)
(0.36711218 -0.0036755625 1.2445901e-21)
(0.38289592 -0.0034910832 1.0528257e-21)
(0.39846877 -0.0033113535 -1.3012508e-21)
(0.41381432 -0.0031368236 -1.220797e-22)
(0.42891807 -0.002967868 3.4360286e-23)
(0.44376745 -0.0028047892 -3.5248751e-22)
(0.45835176 -0.0026478229 -4.0719065e-22)
(0.47266217 -0.0024971436 5.6461727e-23)
(0.48669166 -0.0023528698 -1.3849329e-22)
(0.50043498 -0.0022150707 -2.2401855e-22)
(0.51388864 -0.0020837724 2.565823e-22)
(0.52705088 -0.0019589652 2.9621604e-22)
(0.53992156 -0.0018406125 -9.1022882e-24)
(0.55250261 -0.0017286546 -1.5728154e-22)
(0.56479681 -0.0016230379 3.0383556e-23)
(0.57681193 -0.0015236685 -4.03791e-23)
(0.58854897 -0.0014306324 9.3928709e-23)
(0.60003943 -0.0013435921 2.1571734e-23)
(0.61123622 -0.0012638863 -1.1881751e-22)
(0.6223421 -0.0011882287 -7.1488984e-24)
(0.63285802 -0.0011291463 1.4717169e-25)
(0.64436178 -0.0010531303 -4.2097331e-24)
(0.6525587 -0.001072386 2.9271429e-23)
(0.66958376 -0.00090008102 3.6647112e-22)
(0.01046661 -0.015024356 -1.2751512e-20)
(0.018204375 -0.016648451 -6.332217e-20)
(0.02780852 -0.017923537 -3.0552811e-20)
(0.038419647 -0.018680777 3.8489502e-20)
(0.049661173 -0.019192841 1.4667934e-20)
(0.061553027 -0.019539223 -1.8212391e-20)
(0.074065999 -0.019720173 4.674955e-21)
(0.087123214 -0.019757295 2.5456803e-20)
(0.10066166 -0.019678558 9.1084885e-23)
(0.11463113 -0.019503434 -7.6626954e-21)
(0.12898356 -0.019246533 -1.3024941e-20)
(0.14367234 -0.018920909 -8.5290811e-21)
(0.15865364 -0.018537981 1.7779879e-20)
(0.17388596 -0.01810741 8.936556e-21)
(0.18932959 -0.01763748 -1.652815e-20)
(0.20494638 -0.017135419 -6.0417784e-21)
(0.22069965 -0.016607569 3.2154941e-21)
(0.23655407 -0.016059528 8.3747384e-21)
(0.25247563 -0.015496279 6.987194e-21)
(0.26843165 -0.014922286 -6.9782752e-21)
(0.28439077 -0.014341568 -3.1727432e-21)
(0.30032305 -0.013757754 1.3636097e-21)
(0.31619998 -0.013174123 3.8995177e-22)
(0.33199462 -0.012593635 1.2130214e-21)
(0.34768162 -0.01201895 1.8453939e-22)
(0.36323732 -0.011452448 -3.2763954e-22)
(0.37863979 -0.010896236 -7.2576507e-22)
(0.39386891 -0.010352164 9.7467786e-22)
(0.40890638 -0.0098218319 8.2716075e-22)
(0.42373576 -0.009306602 -1.5386848e-22)
(0.43834247 -0.0088076098 5.5528396e-22)
(0.45271378 -0.0083257773 -2.3922336e-22)
(0.46683878 -0.0078618273 -3.7287687e-22)
(0.48070838 -0.007416299 -6.1274863e-22)
(0.49431526 -0.0069895653 4.4300313e-22)
(0.50765384 -0.006581851 -1.8029293e-23)
(0.52072024 -0.0061932527 1.639575e-22)
(0.5335123 -0.0058237594 -4.4600844e-22)
(0.54602944 -0.0054732798 3.7776756e-22)
(0.55827312 -0.005141653 6.7756772e-23)
(0.57024568 -0.0048287366 -1.0294709e-22)
(0.58195436 -0.0045342665 1.8046957e-22)
(0.59339972 -0.0042585164 2.4025275e-22)
(0.60461252 -0.004000494 1.7541688e-22)
(0.61554587 -0.0037642104 1.7540234e-22)
(0.62639956 -0.0035398789 -2.7549656e-23)
(0.63668113 -0.0033648418 9.1667106e-23)
(0.64794499 -0.0031393375 8.3948294e-23)
(0.65596242 -0.0031970401 -2.0558116e-22)
(0.67266702 -0.0026858875 -3.6705302e-23)
(0.067651245 -0.024040681 9.4560812e-21)
(0.073630309 -0.026761659 3.2968909e-21)
(0.082311032 -0.028819258 -1.2168256e-20)
(0.091998816 -0.029983106 -1.2270732e-21)
(0.10204008 -0.030783324 1.4976832e-20)
(0.11260955 -0.031347202 -1.4892629e-20)
(0.12374605 -0.031653204 -2.9854632e-20)
(0.13537432 -0.031730928 1.4500243e-20)
(0.14744244 -0.031626317 1.8190351e-20)
(0.15991749 -0.031369469 -1.1603975e-20)
(0.17276386 -0.030981942 1.0194904e-21)
(0.18594393 -0.030483561 8.6878074e-21)
(0.19942149 -0.029892026 -1.526164e-20)
(0.21316148 -0.029222365 2.915239e-21)
(0.22712936 -0.028487526 7.5242658e-21)
(0.24129114 -0.027698905 2.8246604e-23)
(0.25561354 -0.02686659 2.6345905e-22)
(0.27006401 -0.025999564 -7.4207848e-21)
(0.28461077 -0.025105875 3.8684031e-21)
(0.29922296 -0.024192789 8.4821527e-21)
(0.31387072 -0.023266883 -3.8385766e-21)
(0.32852529 -0.022334129 -2.2144642e-21)
(0.34315912 -0.021399952 1.0120432e-21)
(0.35774601 -0.020469265 -1.717974e-21)
(0.37226119 -0.019546502 1.3542729e-21)
(0.38668137 -0.018635643 7.1907087e-22)
(0.40098492 -0.017740224 1.5329595e-21)
(0.41515181 -0.016863361 -1.9593131e-21)
(0.42916376 -0.016007758 2.2318198e-21)
(0.4430042 -0.01517573 5.5380082e-22)
(0.45665831 -0.014369217 4.0822959e-22)
(0.47011304 -0.013589805 3.2189781e-22)
(0.48335706 -0.012838751 8.7937258e-22)
(0.49638077 -0.01211701 -1.3807262e-21)
(0.50917628 -0.011425259 3.7396116e-22)
(0.52173733 -0.010763929 1.1291451e-22)
(0.53405934 -0.01013324 -4.6411077e-23)
(0.54613937 -0.0095332311 8.5371255e-23)
(0.55797604 -0.008963808 -3.7628366e-22)
(0.56956995 -0.0084247595 1.8630301e-22)
(0.58092256 -0.0079159041 -3.5324354e-23)
(0.59204015 -0.0074368568 4.0155968e-22)
(0.60292249 -0.0069881216 -1.9144231e-22)
(0.61359893 -0.0065681055 4.8411855e-23)
(0.62402293 -0.0061834742 4.5795644e-23)
(0.63438877 -0.0058181521 -7.7524607e-23)
(0.64421641 -0.005533575 -1.3109362e-22)
(0.65501555 -0.0051660532 4.1462005e-22)
(0.66268469 -0.0052618613 1.8254325e-22)
(0.67876817 -0.0044290525 -8.4402504e-22)
(0.15027229 -0.031477061 1.5020008e-21)
(0.15360816 -0.035275366 -1.1569184e-20)
(0.16068262 -0.038030273 6.6452966e-21)
(0.16887806 -0.039499627 -1.33292e-20)
(0.17706046 -0.040542327 -1.9765234e-21)
(0.18560814 -0.041325027 9.1643825e-21)
(0.19467582 -0.041781067 -9.7721908e-21)
(0.20418598 -0.041938582 1.5651152e-21)
(0.21409471 -0.041859209 1.2908968e-20)
(0.22439153 -0.041581191 3.4058753e-21)
(0.23505717 -0.041129849 -6.2123146e-21)
(0.24606455 -0.040529177 -2.866421e-21)
(0.25738627 -0.039801379 -5.8414439e-21)
(0.26899484 -0.038965571 -6.4595782e-21)
(0.28086171 -0.038038364 3.2343635e-21)
(0.29295764 -0.037034559 8.4304012e-22)
(0.30525309 -0.035967451 1.3700174e-21)
(0.31771855 -0.034849024 -3.386839e-21)
(0.33032465 -0.033690143 -4.2480807e-21)
(0.34304245 -0.032500703 2.3645531e-21)
(0.3558436 -0.031289749 3.2301379e-21)
(0.36870051 -0.030065553 -1.5676082e-21)
(0.38158657 -0.028835673 1.5892051e-21)
(0.39447624 -0.027606997 -3.9301957e-22)
(0.40734522 -0.02638577 -3.9288579e-21)
(0.42017054 -0.025177622 -3.0375447e-21)
(0.43293066 -0.023987581 -1.9203034e-22)
(0.44560556 -0.022820095 4.2749458e-22)
(0.45817678 -0.021679046 -2.2147212e-21)
(0.47062744 -0.020567776 -8.6064668e-22)
(0.48294232 -0.019489107 2.2871141e-22)
(0.4951078 -0.018445373 -1.2564914e-21)
(0.50711193 -0.017438446 4.7642957e-24)
(0.51894434 -0.016469777 -4.2789178e-22)
(0.5305963 -0.01554043 -4.7331932e-22)
(0.54206064 -0.014651129 -5.2727373e-22)
(0.55333177 -0.013802296 -8.5274108e-22)
(0.5644057 -0.012994104 -5.3703206e-23)
(0.57527993 -0.012226535 -3.9402078e-24)
(0.58595388 -0.011499409 -5.2857053e-22)
(0.59642784 -0.010812581 -9.0613319e-23)
(0.60670679 -0.010165621 -3.4079867e-22)
(0.61678939 -0.0095593271 -4.521056e-22)
(0.62670309 -0.0089915944 3.9159535e-22)
(0.63640192 -0.0084716963 1.5357342e-23)
(0.64607231 -0.0079776411 1.9160703e-22)
(0.65525213 -0.0075937008 -1.4352791e-22)
(0.66538681 -0.0070962357 -2.8433771e-22)
(0.67255812 -0.0072293804 -3.4996915e-23)
(0.68775071 -0.0061027618 4.7065909e-22)
(0.25476471 -0.03657468 -2.0907325e-20)
(0.25455367 -0.041416917 4.7599108e-20)
(0.25916205 -0.04477063 1.0350747e-20)
(0.26517877 -0.046468385 -1.5770435e-20)
(0.27081016 -0.047741965 -2.0245403e-21)
(0.27662726 -0.04877674 2.6229668e-21)
(0.28294974 -0.049443978 -1.6626352e-21)
(0.28969855 -0.049759614 -4.6878827e-21)
(0.2968261 -0.049794165 -4.0174914e-21)
(0.30434337 -0.049590978 -1.2212614e-20)
(0.312249 -0.049176775 1.7907443e-20)
(0.32052569 -0.048577028 6.5263891e-21)
(0.32915342 -0.047816308 -1.678801e-20)
(0.33811121 -0.046916464 1.0319281e-20)
(0.34737571 -0.045896838 8.3856689e-21)
(0.35692157 -0.044774941 -8.7630556e-22)
(0.36672225 -0.04356679 -3.1214155e-21)
(0.37675051 -0.04228708 -3.8251943e-21)
(0.38697876 -0.040949322 -1.3917716e-21)
(0.39737934 -0.039565979 -1.2328105e-21)
(0.40792486 -0.038148554 -3.0311667e-21)
(0.41858843 -0.036707661 0)
(0.42934386 -0.035253071 -1.3480262e-21)
(0.44016588 -0.03379374 3.935482e-21)
(0.45103025 -0.032337838 5.4149156e-21)
(0.46191393 -0.030892762 -9.4184721e-22)
(0.47279519 -0.029465152 -2.9370244e-21)
(0.48365364 -0.028060912 3.0376962e-21)
(0.49447037 -0.026685228 2.5131022e-22)
(0.50522794 -0.025342589 3.4487969e-21)
(0.51591041 -0.024036823 -5.353698e-22)
(0.5265034 -0.022771127 1.7239656e-21)
(0.53699405 -0.021548108 -8.0467747e-22)
(0.54737104 -0.020369828 2.9495332e-22)
(0.55762455 -0.019237851 -4.386208e-22)
(0.56774628 -0.018153301 5.6589558e-22)
(0.57772945 -0.017116914 4.6220283e-22)
(0.58756878 -0.0161291 3.8742487e-22)
(0.59726045 -0.015190024 -9.7261749e-22)
(0.60680254 -0.014299634 6.9445669e-22)
(0.61619391 -0.013457918 -3.7601611e-22)
(0.62543806 -0.012664497 -1.1291241e-21)
(0.6345324 -0.011920539 1.4458948e-21)
(0.64350206 -0.01122354 -6.3503077e-23)
(0.65230192 -0.010585306 -1.643039e-22)
(0.66110865 -0.0099784327 -8.2114391e-24)
(0.66948285 -0.0095083102 -1.3668389e-22)
(0.67878878 -0.0088967265 -4.9321574e-22)
(0.68534001 -0.0090660242 8.7259882e-22)
(0.69941572 -0.0076822441 -4.5334005e-23)
(0.37645102 -0.038395277 -1.7501061e-20)
(0.37181399 -0.044298902 1.2835008e-20)
(0.37297631 -0.048191932 2.9778578e-21)
(0.37602578 -0.050130681 -7.6377969e-21)
(0.37842675 -0.051703277 1.2059929e-20)
(0.38085084 -0.053077166 7.7941228e-21)
(0.38381073 -0.054066304 -1.2651039e-20)
(0.38724255 -0.054670807 -6.070221e-21)
(0.39107891 -0.054957118 1.2702197e-20)
(0.39534029 -0.054967631 -1.5313779e-20)
(0.4000408 -0.054729371 -1.4068875e-20)
(0.40517085 -0.054267845 1.4139137e-20)
(0.41071423 -0.053608171 6.8225133e-21)
(0.41665323 -0.052773767 -4.2106424e-21)
(0.42296732 -0.051786135 -1.8522546e-21)
(0.42963303 -0.050665172 -4.0569067e-21)
(0.43662507 -0.049429438 5.3038087e-21)
(0.44391696 -0.048096298 3.6701417e-21)
(0.45148154 -0.046681985 -3.2416765e-21)
(0.45929132 -0.045201659 3.1397018e-21)
(0.46731887 -0.043669466 2.7702904e-21)
(0.47553708 -0.042098563 -3.2151667e-21)
(0.48391943 -0.04050115 3.708374e-22)
(0.49244019 -0.038888473 -3.2594255e-21)
(0.50107458 -0.03727084 7.2643349e-21)
(0.50979894 -0.03565763 6.1209246e-21)
(0.51859082 -0.0340573 8.141796e-22)
(0.52742906 -0.032477405 -1.7721539e-21)
(0.53629388 -0.030924616 3.7181088e-21)
(0.54516692 -0.029404752 7.2185686e-21)
(0.55403127 -0.02792281 2.3121207e-21)
(0.56287146 -0.02648301 3.3333531e-21)
(0.57167352 -0.025088845 2.0050401e-21)
(0.58042494 -0.023743133 7.5077646e-22)
(0.58911465 -0.022448076 -2.6447124e-22)
(0.59773308 -0.021205331 2.743409e-21)
(0.60627208 -0.020016075 6.2564828e-22)
(0.61472499 -0.018881076 2.9766177e-22)
(0.62308659 -0.017800798 5.6743976e-23)
(0.63135345 -0.016775429 1.0061456e-21)
(0.63952301 -0.015805199 4.7505275e-23)
(0.64759714 -0.014889883 4.5288739e-22)
(0.65557196 -0.014031098 -1.2876761e-22)
(0.6634701 -0.013226069 -2.8652899e-22)
(0.67124762 -0.012489032 -1.5772283e-22)
(0.67906987 -0.011787758 -4.4054166e-22)
(0.68652429 -0.01124669 1.7336105e-22)
(0.69488013 -0.010539465 -1.3384621e-22)
(0.70072246 -0.010743375 -4.9703575e-22)
(0.71350848 -0.0091454184 2.5161378e-22)
(0.50939065 -0.0360061 3.6466668e-21)
(0.49965123 -0.042994124 -1.8962057e-20)
(0.49640135 -0.047418596 -2.3093247e-21)
(0.49568739 -0.049773514 5.4883565e-21)
(0.49430699 -0.051856412 3.0545551e-21)
(0.49283943 -0.053745429 -4.8283057e-23)
(0.49196257 -0.055229303 6.1937149e-21)
(0.49167181 -0.056308665 7.6283805e-21)
(0.49187642 -0.057035389 9.8611324e-21)
(0.49258339 -0.057441999 -1.1255044e-20)
(0.49381211 -0.057554273 -2.1590529e-20)
(0.49555778 -0.057397917 -3.9390081e-21)
(0.49780418 -0.056998145 1.594713e-20)
(0.50053263 -0.056379529 1.281623e-20)
(0.50372202 -0.055565757 -5.9078378e-21)
(0.50734833 -0.054579382 1.3792624e-21)
(0.5113854 -0.053441847 -3.6651735e-21)
(0.51580574 -0.052173557 2.2515807e-21)
(0.52058113 -0.05079386 -2.9139576e-22)
(0.52568298 -0.049321025 -1.8673394e-21)
(0.53108268 -0.047772234 7.8376488e-21)
(0.53675195 -0.04616358 -2.9522459e-22)
(0.54266308 -0.044510052 4.2043956e-22)
(0.54878912 -0.042825535 -6.548544e-22)
(0.55510409 -0.041122797 -4.3098051e-21)
(0.56158309 -0.039413497 4.215855e-21)
(0.56820242 -0.037708187 1.9047722e-21)
(0.57493969 -0.03601633 -3.3151073e-21)