/*--------------------------------*- C++ -*----------------------------------*\
  =========                 |
  \\      /  F ield         | OpenFOAM: The Open Source CFD Toolbox
   \\    /   O peration     | Website:  https://openfoam.org
    \\  /    A nd           | Version:  6
     \\/     M anipulation  |
\*---------------------------------------------------------------------------*/
FoamFile
{
    version     2.0;
    format      ascii;
    class       surfaceScalarField;
    location    "18";
    object      phi;
}
// * * * * * * * * * * * * * * * * * * * * * * * * * * * * * * * * * * * * * //

dimensions      [0 3 -1 0 0 0 0];

internalField   nonuniform List<scalar> 
18180
(
0.00033603618
-0.00019455615
-0.00014147999
0.0013781608
-0.001497684
0.00045555945
0.0031895502
-0.0036011057
0.0017897164
0.0058320222
-0.006416232
0.00377376
0.0093653589
-0.0098873756
0.006354039
0.01384487
-0.013969958
0.0094904473
0.019318258
-0.018624798
0.013151411
0.025822165
-0.023815159
0.017311251
0.033378582
-0.029503418
0.021947
0.041991413
-0.035648314
0.027035483
0.051643572
-0.042203169
0.03255101
0.062295045
-0.049115064
0.038463591
0.073882351
-0.056324985
0.044737679
0.086319885
-0.063768935
0.051331401
0.099503719
-0.071380086
0.058196252
0.11331835
-0.079092023
0.065277389
0.12764582
-0.086842865
0.072515396
0.14238157
-0.094579843
0.079844098
0.15750535
-0.10228019
0.087156402
-0.10993931
0.094252049
0.17319261
0.00041684967
-0.00061140579
0.0016858468
-0.0027666811
0.003860815
-0.0057760739
0.0069930678
-0.0095484848
0.011128995
-0.014023303
0.016305842
-0.019146805
0.022547173
-0.024866129
0.029858468
-0.031126454
0.038223193
-0.037868143
0.047599818
-0.045024938
0.057920264
-0.052523615
0.06909019
-0.060284989
0.08099132
-0.068226115
0.093485885
-0.0762635
0.10642285
-0.084317053
0.11964523
-0.092314404
0.13299739
-0.10019502
0.14633257
-0.10791502
0.15951261
-0.11546023
-0.12276621
0.17233952
0.00050187156
-0.0011132773
0.0020011253
-0.0042659348
0.0045354435
-0.0083103921
0.0081382192
-0.01315126
0.012833603
-0.018718687
0.018630491
-0.024943693
0.025516988
-0.031752626
0.033455891
-0.039065357
0.042381695
-0.046793947
0.052199663
-0.054842906
0.062787344
-0.063111297
0.073998678
-0.071496323
0.085670445
-0.079897882
0.097630539
-0.088223594
0.10970714
-0.096393655
0.12173759
-0.10434485
0.13357567
-0.11203309
0.14509528
-0.11943464
0.15618323
-0.12654818
-0.13333293
0.16674995
0.00058902536
-0.0017023027
0.0023149454
-0.0059918549
0.0051906688
-0.011186115
0.0092226387
-0.01718323
0.014402738
-0.023898786
0.020700875
-0.03124183
0.028059415
-0.039111165
0.036389956
-0.047395899
0.045572958
-0.055976949
0.055460564
-0.064730512
0.065882593
-0.073533325
0.076655213
-0.082268943
0.08759143
-0.090834099
0.098512192
-0.099144356
0.10925682
-0.10713828
0.1196915
-0.11477954
0.129715
-0.1220566
0.13926061
-0.12898024
0.14829224
-0.13557981
-0.14186471
0.15682401
0.00067487473
-0.0023771774
0.0026137328
-0.0079307129
0.0057952937
-0.014367676
0.010189374
-0.021577311
0.015745694
-0.029455106
0.022386025
-0.037882161
0.030000058
-0.046725199
0.038445163
-0.055841003
0.047550239
-0.065082025
0.057123426
-0.074303699
0.06696285
-0.083372749
0.076869117
-0.09217521
0.086657998
-0.10062298
0.096171676
-0.10865803
0.10528723
-0.11625383
0.1139215
-0.1234138
0.12203208
-0.13016718
0.12961484
-0.13656301
0.1366983
-0.14266327
-0.14851997
0.14335356
0.00075511223
-0.0031322896
0.0028811748
-0.010056775
0.0063135072
-0.017800009
0.010976267
-0.026240071
0.016768902
-0.035247741
0.023559341
-0.0446726
0.031182976
-0.054348833
0.03944691
-0.064104938
0.048138943
-0.073774058
0.057040093
-0.08320485
0.06593891
-0.092271565
0.074645509
-0.10088181
0.0830034
-0.10898087
0.090897603
-0.11655224
0.098258204
-0.12361443
0.10505936
-0.13021495
0.11131446
-0.13642229
0.11706874
-0.14231729
0.12239073
-0.14798525
-0.15350246
0.12737322
0.00082492962
-0.0039572192
0.0030997073
-0.012331553
0.0067084353
-0.021408737
0.011522673
-0.031054309
0.017386913
-0.04111198
0.024114528
-0.051400215
0.031491344
-0.061725648
0.03928514
-0.071898734
0.047259486
-0.081748404
0.055189621
-0.091134985
0.062877804
-0.099959748
0.070165742
-0.10816975
0.076942393
-0.11575752
0.083146341
-0.12275619
0.088762948
-0.12923104
0.093817322
-0.13526933
0.098364709
-0.14096967
0.10248012
-0.1464327
0.10624886
-0.15175399
-0.15701683
0.10976323
0.00087914364
-0.0048363628
0.0032514765
-0.014703886
0.0069449127
-0.025102173
0.011774987
-0.035884383
0.017531228
-0.046868221
0.02397747
-0.057846457
0.030860776
-0.068608955
0.037925866
-0.078963823
0.044932225
-0.088754763
0.051670761
-0.097873521
0.057977047
-0.10626603
0.063739132
-0.11393183
0.068899062
-0.12091745
0.073448521
-0.12730564
0.077419961
-0.13320248
0.080875163
-0.13872453
0.08389332
-0.14398783
0.086560398
-0.14909978
0.088961034
-0.15415463
-0.15923053
0.091174736
0.00091134489
-0.0057477077
0.0033183543
-0.017110895
0.0069917111
-0.02877553
0.011691698
-0.040584369
0.017157867
-0.052334391
0.02311476
-0.06380335
0.029285931
-0.074780126
0.03541179
-0.085089683
0.041267477
-0.09461045
0.046677221
-0.10328326
0.051522616
-0.11111143
0.055743793
-0.11815301
0.059333975
-0.12450763
0.062329089
-0.13030076
0.064794738
-0.13566813
0.066812908
-0.1407427
0.068470334
-0.14564526
0.069849835
-0.15047928
0.071025021
-0.15532981
-0.16026337
0.072057858
0.00091812306
-0.0066658307
0.0032917076
-0.01948448
0.0068353553
-0.032319177
0.011258774
-0.045007788
0.016261234
-0.05733685
0.021542467
-0.069084583
0.02682042
-0.080058079
0.031850022
-0.090119284
0.036438795
-0.099199223
0.040456088
-0.10730056
0.04383449
-0.11448983
0.046563823
-0.12088234
0.048679619
-0.12662343
0.050248716
-0.13186986
0.051354648
-0.13677406
0.052084989
-0.14147304
0.052521978
-0.14608225
0.052736889
-0.15069419
0.052787784
-0.15538071
0.052718859
-0.16019444
-0.00021470424
0.0002147045
-2.2881635e-10
-0.00071778704
0.00050308345
-6.0240361e-10
-0.0014201079
0.00070232183
-9.2935453e-10
-0.0022536585
0.0008335519
-1.2150558e-09
-0.0031638467
0.00091018972
-1.4671064e-09
-0.0041061103
0.00094226534
-1.6874876e-09
-0.0050434782
0.00093736984
-1.8810725e-09
-0.0059445343
0.00090105826
-2.0476443e-09
-0.0067818161
0.00083728406
-2.1887115e-09
-0.0075305577
0.00074874399
-2.303065e-09
-0.0081676808
0.00063712559
-2.3874589e-09
-0.0086709758
0.00050329756
-2.4423436e-09
-0.0090184423
0.00034746906
-2.4588719e-09
-0.0091877758
0.00016933616
-2.4402439e-09
-0.009156034
-3.1739278e-05
-2.3722026e-09
-0.0088996046
-0.000256427
-2.2645375e-09
-0.0083944358
-0.0005051666
-2.0922433e-09
-0.0076155367
-0.00077889713
-1.8741477e-09
-0.0065363926
-0.0010791423
-1.5749266e-09
-0.0013917752
-0.0051446161
-1.2100629e-09
-0.0001987924
0.00041349693
-0.00065980831
0.00096409939
-0.0012954795
0.001337993
-0.0020379015
0.001575974
-0.0028317301
0.0017040183
-0.0036309724
0.0017415077
-0.0043966481
0.0017030456
-0.005094819
0.0015992293
-0.0056950214
0.0014374865
-0.0061690225
0.0012227452
-0.0064898111
0.00095791428
-0.0066307655
0.00064425204
-0.0065649637
0.00028166736
-0.006264615
-0.00013101249
-0.0057006475
-0.00059570661
-0.0048425534
-0.001114521
-0.003658536
-0.0016891839
-0.0021154039
-0.0023220291
-0.00017831147
-0.0030162346
-0.0037411989
0.0021711123
-0.00016689235
0.00058038931
-0.00054376275
0.0013409698
-0.001046737
0.0018409673
-0.001608663
0.0021379001
-0.0021731598
0.0022685151
-0.0026918139
0.0022601618
-0.0031220726
0.0021333043
-0.0034254319
0.0019025886
-0.0035659707
0.0015780254
-0.0035091685
0.001165943
-0.0032209355
0.00066968131
-0.0026667985
9.0115147e-05
-0.0018111924
-0.00057393863
-0.00061687953
-0.0013253253
0.00095555821
-0.0021681443
0.0029481069
-0.0031070695
0.0054053847
-0.0041464618
0.0083742925
-0.0052909367
0.011903889
-0.0065458313
-0.0078603347
0.016023025
-0.00012178593
0.00070217526
-0.00037872121
0.0015979051
-0.0006918652
0.0021541113
-0.00099515581
0.0024411907
-0.0012309033
0.0025042627
-0.0013475216
0.0023767801
-0.0012977547
0.0020835375
-0.0010371042
0.0016419382
-0.00052254178
0.001063463
0.00028852848
0.00035487278
0.001439125
-0.00048091519
0.0029733836
-0.0014441434
0.0049371371
-0.0025376921
0.0073784258
-0.0037666139
0.010348027
-0.0051377457
0.013900055
-0.0066590969
0.018092393
-0.0083388002
0.022986406
-0.010184949
0.028646654
-0.01220608
-0.01432806
0.03511438
-6.7024049e-05
0.00076919934
-0.00017627412
0.0017071552
-0.00025394296
0.0022317802
-0.00023504002
0.0024222878
-6.0320162e-05
0.0023295428
0.00032541314
0.0019910469
0.00097469913
0.0014342516
0.0019386508
0.00067798658
0.0032679859
-0.00026587205
0.0050138423
-0.0013909836
0.0072283537
-0.0026954265
0.0099650484
-0.004180838
0.013279145
-0.0058517891
0.017227807
-0.0077152751
0.021870393
-0.0097803321
0.027268961
-0.012057665
0.033489068
-0.014558907
0.040600274
-0.017296155
0.048676965
-0.020282771
-0.023421364
0.05777027
-6.1196318e-06
0.00077531899
5.1905402e-05
0.0016491302
0.00024347397
0.0020402116
0.00063281138
0.0020329504
0.0012808936
0.0016814606
0.0022465867
0.0010253538
0.0035876184
9.3219991e-05
0.0053614636
-0.0010958586
0.0076259795
-0.0025303879
0.01043973
-0.0042047336
0.013862139
-0.0061178356
0.01795349
-0.0082721891
0.022774694
-0.010672993
0.028386917
-0.013327498
0.034851197
-0.016244612
0.04222839
-0.019434858
0.050580004
-0.022910522
0.059970082
-0.026686232
0.070469134
-0.030781823
-0.035082894
0.082130664
5.8161009e-05
0.00071715801
0.00029625018
0.0014110411
0.0007805119
0.0015559499
0.0015748111
0.0012386513
0.0027418182
0.00051445361
0.0043436941
-0.00057652212
0.0064426167
-0.0020057025
0.0091010638
-0.0037543057
0.012381841
-0.0058111651
0.01634793
-0.0081708225
0.021062034
-0.01083194
0.026585827
-0.013795982
0.03297894
-0.017066106
0.040297727
-0.020646284
0.048593916
-0.024540801
0.057913557
-0.028754498
0.06829723
-0.033294195
0.079782938
-0.038171941
0.092414864
-0.043413749
-0.048908054
0.10624002
0.00012419611
0.00059296192
0.00055055295
0.00098468427
0.0013433996
0.00076310336
0.0025664355
1.5615367e-05
0.0042836266
-0.0012027374
0.0065593879
-0.0028522834
0.0094583955
-0.0049047101
0.013045238
-0.0073411482
0.017383796
-0.010149723
0.022536235
-0.013323262
0.028561674
-0.016857378
0.035514517
-0.020748825
0.043442498
-0.024994087
0.052384489
-0.029588275
0.062368209
-0.034524521
0.073408178
-0.039794468
0.08550503
-0.045391047
0.098648064
-0.051314974
0.11282596
-0.057591643
-0.064143974
0.12806188
0.00019137091
0.00040159104
0.00081176745
0.00036428776
0.0019241869
-0.00034931606
0.0035917521
-0.0016519498
0.0058784445
-0.0034894298
0.0088486167
-0.0058224555
0.012566118
-0.0086222112
0.017093071
-0.011868101
0.022488261
-0.015544913
0.028805142
-0.019640143
0.036089523
-0.024141758
0.044376974
-0.029036276
0.053690056
-0.034307169
0.064035403
-0.039933622
0.075400736
-0.045889855
0.087751856
-0.052145587
0.1010305
-0.058669695
0.11515575
-0.065440218
0.13003658
-0.072472479
-0.079767402
0.14566001
0.00026011106
0.0010799583
0.0025203587
0.0046421689
0.007506778
0.01117477
0.015703969
0.021147119
0.027549207
0.034944547
0.043353799
0.052781113
0.063211624
0.074609403
0.0869158
0.1000476
0.1138933
0.12829718
0.1429811
0.15746575
-0.0029303359
-0.0022142791
-9.1671644e-10
-0.00037983712
-0.0025504987
1.6280604e-10
0.0024904294
-0.0028702678
1.514549e-09
0.0056244675
-0.0031340409
3.1391071e-09
0.009000451
-0.0033759884
4.9893363e-09
0.012608275
-0.0036078317
7.0303665e-09
0.016436581
-0.0038283151
9.3051621e-09
0.02047553
-0.0040389599
1.1675719e-08
0.024718664
-0.0042431486
1.4074213e-08
0.029162068
-0.00444342
1.639456e-08
0.033803702
-0.0046416523
1.8629524e-08
0.038643269
-0.0048395872
2.0677671e-08
0.04368201
-0.0050387642
2.2522078e-08
0.048922336
-0.0052403497
2.4043794e-08
0.054367368
-0.0054450572
2.5210395e-08
0.060020412
-0.0056530701
2.5898593e-08
0.065884324
-0.005863938
2.6084841e-08
0.071960772
-0.006076474
2.5682002e-08
0.07824942
-0.006288673
2.4704136e-08
0.084747058
-0.006497661
2.3120778e-08
0.091446726
-0.0066996887
2.0991129e-08
0.09833689
-0.0068901827
1.8345911e-08
0.10540074
-0.0070638619
1.5280531e-08
0.11261564
-0.0072149195
1.1878988e-08
0.1199529
-0.0073372612
8.2455352e-09
0.12737767
-0.0074247777
4.5024057e-09
0.13484928
-0.0074716152
7.2035128e-10
0.14232168
-0.007472389
-2.9555986e-09
0.14974395
-0.0074222662
-6.5224336e-09
0.15706079
-0.0073168354
-9.8134491e-09
0.16421251
-0.0071517027
-1.2897601e-08
0.17113438
-0.0069218559
-1.5576905e-08
0.17775547
-0.0066210747
-1.795736e-08
0.18399747
-0.0062419772
-1.9807452e-08
0.189775
-0.0057775125
-2.1229611e-08
0.19499947
-0.0052244456
-2.1992925e-08
0.19958786
-0.0045883667
-2.2190396e-08
0.20347611
-0.0038882258
-2.1694884e-08
0.20663351
-0.0031573795
-2.0627532e-08
0.20907246
-0.0024389282
-1.9033909e-08
0.21084847
-0.0017759951
-1.7064516e-08
0.21204939
-0.0012009107
-1.4894897e-08
0.21277783
-0.00072842411
-1.2662867e-08
0.21313353
-0.00035568756
-1.0509709e-08
0.2132016
-6.8067972e-05
-8.4934555e-09
0.21304772
0.00015388757
-6.6307919e-09
0.21272042
0.00032730704
-4.9126488e-09
0.21225156
0.00046886143
-3.322225e-09
0.21167295
0.00057861509
-1.9444451e-09
0.00071105724
-1.3726385e-10
0.0042955823
-0.0043387489
0.0067477494
-0.0050026658
0.0095033979
-0.005625916
0.012500645
-0.0061312877
0.015723143
-0.0065984866
0.019165666
-0.007050355
0.022818699
-0.007481348
0.026673515
-0.0078937758
0.030724803
-0.0082944363
0.034969526
-0.008688143
0.039406173
-0.0090782988
0.044034726
-0.0094681399
0.048856537
-0.0098605749
0.053873999
-0.010257812
0.059090146
-0.010661204
0.064508171
-0.011071096
0.070130859
-0.011486626
0.075959897
-0.011905512
0.081995112
-0.012323888
0.088233646
-0.012736195
0.094669121
-0.013135164
0.10129084
-0.013511902
0.1080831
-0.013856118
0.11502465
-0.01415647
0.12208841
-0.014401025
0.12924143
-0.014577798
0.1364451
-0.014675282
0.14365559
-0.014682876
0.15082439
-0.014591069
0.15789875
-0.014391202
0.16482174
-0.014074685
0.17153161
-0.013631732
0.17796067
-0.013050135
0.18403393
-0.01231523
0.18966911
-0.011412694
0.19477999
-0.010335325
0.1992846
-0.0090929836
0.20311818
-0.0077217962
0.20624739
-0.006286598
0.20868053
-0.0048720676
0.2104682
-0.0035636624
0.2116934
-0.0024261077
0.21245463
-0.0014896611
0.21284868
-0.0007497357
0.21295879
-0.00017817087
0.21284959
0.00026308157
0.2125692
0.00060769883
0.21214928
0.00088878542
0.21162175
0.001106142
0.001369019
0.01794713
-0.006262854
0.020174251
-0.0072297864
0.022674897
-0.0081265622
0.025380267
-0.0088366572
0.028283154
-0.0095013739
0.03138653
-0.010153731
0.034684347
-0.010779164
0.038169936
-0.011379365
0.04183992
-0.011964419
0.045692718
-0.012540941
0.04972767
-0.013113251
0.053945151
-0.013685621
0.058346587
-0.014262011
0.062934223
-0.014845448
0.067710812
-0.015437793
0.072679248
-0.016039531
0.077842088
-0.016649466
0.083200981
-0.017264405
0.088755993
-0.0178789
0.094504869
-0.018485071
0.10044227
-0.019072562
0.10655901
-0.019628647
0.11284142
-0.020138528
0.11927079
-0.020585833
0.12582303
-0.020953271
0.13246864
-0.021223404
0.13917279
-0.021379436
0.14589578
-0.021405862
0.15259348
-0.021288768
0.15921783
-0.021015552
0.16571695
-0.020573806
0.17203467
-0.019949452
0.17810932
-0.01912479
0.18387224
-0.018078151
0.18924717
-0.016787618
0.19415256
-0.015240716
0.19850869
-0.013449115
0.20224962
-0.011462727
0.20533725
-0.0093742299
0.20777209
-0.0073069054
0.2095954
-0.0053869682
0.21088091
-0.0037116232
0.21171932
-0.002328075
0.21220171
-0.0012321203
0.21240773
-0.0003841929
0.21240011
0.00027069949
0.21222615
0.00078166648
0.21191715
0.001197786
0.2115053
0.0015179882
0.0019067536
0.036699902
-0.0078483759
0.038550966
-0.0090808505
0.040633906
-0.010209503
0.042879235
-0.011081986
0.045292013
-0.011914152
0.047884127
-0.012745846
0.050654083
-0.01354912
0.053598202
-0.014323484
0.056715394
-0.015081611
0.060005673
-0.01583122
0.063469275
-0.016576853
0.067106871
-0.017323216
0.070919725
-0.018074865
0.074909623
-0.018835346
0.079078695
-0.019606865
0.083429178
-0.020390014
0.087963081
-0.021183369
0.092681749
-0.021983074
0.097585324
-0.022782474
0.10267212
-0.023571864
0.10793794
-0.024338385
0.11337542
-0.025066127
0.11897337
-0.025736475
0.12471624
-0.026328706
0.13058378
-0.026820813
0.13655086
-0.027190482
0.14258754
-0.02741612
0.1486594
-0.027477721
0.15472798
-0.027357343
0.16075126
-0.027038838
0.16668397
-0.026506513
0.17247722
-0.025742704
0.17807744
-0.024725012
0.18342463
-0.023425339
0.18845101
-0.021813996
0.19308201
-0.019871721
0.1972417
-0.017608804
0.20086332
-0.015084347
0.20390286
-0.01241377
0.20635058
-0.00975463
0.20823508
-0.0072714591
0.20961728
-0.0050938293
0.21057694
-0.003287737
0.21119707
-0.0018522481
0.21155223
-0.00073934844
0.21170236
0.00012056403
0.2116936
0.00079043045
0.21155675
0.0013346317
0.2113244
0.0017503417
0.0022579455
0.058841916
-0.0089200223
0.060140205
-0.010379139
0.061623515
-0.011692813
0.063232685
-0.012691156
0.064987399
-0.013668866
0.066906154
-0.014664601
0.068992034
-0.015635
0.071245112
-0.016576562
0.07366643
-0.017502928
0.076257104
-0.018421894
0.079017899
-0.019337648
0.0819494
-0.020254717
0.08505225
-0.021177715
0.088327272
-0.022110368
0.091775465
-0.023055059
0.095397909
-0.024012457
0.099195579
-0.02498104
0.10316907
-0.025956565
0.1073182
-0.026931606
0.11164153
-0.027895195
0.11613579
-0.028832644
0.12079528
-0.029725614
0.12561127
-0.030552464
0.13057148
-0.031288914
0.13565965
-0.031908986
0.14085533
-0.03238616
0.14613381
-0.032694608
0.15146639
-0.032810293
0.1568207
-0.032711657
0.16216131
-0.032379451
0.16745011
-0.03179531
0.17264626
-0.030938852
0.17770532
-0.029784075
0.1825774
-0.028297415
0.18720504
-0.026441635
0.19152269
-0.024189368
0.19546004
-0.021546159
0.19895073
-0.018575035
0.20194497
-0.015408008
0.20442177
-0.012231434
0.20639512
-0.009244806
0.20791079
-0.0066095034
0.20903528
-0.0044122286
0.20984167
-0.0026586366
0.21039813
-0.0012958099
0.2107611
-0.00024240234
0.21097519
0.00057634543
0.21107055
0.001239266
0.21108029
0.0017406037
0.0023575461
0.082484302
-0.0092736606
0.083038051
-0.010932888
0.08373563
-0.012390391
0.084541551
-0.013497077
0.085489067
-0.014616381
0.086597961
-0.015773496
0.087874661
-0.0169117
0.089323173
-0.018025074
0.090945978
-0.019125733
0.092744232
-0.020220148
0.094718379
-0.021311796
0.096868259
-0.022404597
0.099193257
-0.023502712
0.10169261
-0.024609723
0.1043656
-0.025728051
0.1072116
-0.026858448
0.11022999
-0.027999432
0.11342009
-0.02914667
0.1167809
-0.03029241
0.1203107
-0.031425002
0.12400669
-0.032528631
0.12786439
-0.03358331
0.13187713
-0.034565208
0.13603553
-0.035447314
0.14032702
-0.036200478
0.14473554
-0.036794677
0.14924137
-0.037200444
0.15382128
-0.037390195
0.15844877
-0.037339155
0.16309473
-0.037025405
0.16772793
-0.036428507
0.17231538
-0.035526307
0.17682179
-0.034290484
0.18120778
-0.032683402
0.18542719
-0.030661051
0.18942505
-0.028187221
0.19313859
-0.025259699
0.19650366
-0.021940109
0.19946602
-0.018370373
0.20199391
-0.014759319
0.20408625
-0.011337152
0.2057726
-0.0082958496
0.20710483
-0.0057444546
0.20814481
-0.0036986165
0.20895335
-0.0021043557
0.20958275
-0.00087179631
0.2100758
8.3296432e-05
0.21046185
0.00085321295
0.21077464
0.0014278165
0.0021422174
0.10569354
-0.008727174
0.10533305
-0.010572403
0.10508615
-0.012143489
0.10496028
-0.013371208
0.10499586
-0.014651959
0.10520622
-0.015983859
0.10559917
-0.017304648
0.10618186
-0.018607767
0.10695708
-0.019900953
0.10792475
-0.021187818
0.10908385
-0.022470894
0.1104326
-0.023753342
0.11196846
-0.025038577
0.11368854
-0.026329795
0.11558986
-0.027629379
0.11766963
-0.028938211
0.11992521
-0.030255013
0.12235419
-0.031575656
0.12495426
-0.03289248
0.12772297
-0.034193707
0.1306574
-0.035463061
0.13375375
-0.036679661
0.13700683
-0.037818286
0.14040953
-0.038850019
0.14395236
-0.039743305
0.14762301
-0.040465327
0.15140613
-0.040983562
0.15528327
-0.041267342
0.15923315
-0.041289036
0.16323215
-0.041024403
0.16725509
-0.040451444
0.17127588
-0.039547096
0.17526749
-0.038282093
0.1792005
-0.036616411
0.1830401
-0.034500651
0.1867427
-0.031889823
0.19025473
-0.02877173
0.19351639
-0.02520177
0.19647113
-0.021325117
0.1990781
-0.01736628
0.20132213
-0.013581183
0.20321669
-0.010190416
0.20479868
-0.0073264377
0.20611809
-0.0050180329
0.20722776
-0.0032140266
0.20817534
-0.0018193685
0.20900156
-0.00074292277
0.20973478
0.00011998821
0.21040952
0.00075307263
0.0015507692
0.12654833
-0.0072136214
0.12519531
-0.0092193829
0.12392178
-0.010869967
0.12281357
-0.012262993
0.1219084
-0.013746784
0.12120552
-0.015280983
0.12071229
-0.01681142
0.12043715
-0.018332627
0.12038189
-0.019845692
0.1205443
-0.021350226
0.12092093
-0.022847525
0.12150759
-0.024340005
0.12229938
-0.025830367
0.12329097
-0.027321382
0.12447697
-0.028815381
0.12585222
-0.030313463
0.12741194
-0.031814725
0.12915178
-0.0333155
0.13106789
-0.034808586
0.13315673
-0.036282552
0.13541491
-0.03772124
0.13783879
-0.03910354
0.14042407
-0.040403566
0.14316528
-0.041591232
0.14605528
-0.042633304
0.14908477
-0.043494812
0.15224194
-0.044140742
0.15551236
-0.044537756
0.15887899
-0.044655668
0.16232275
-0.044468166
0.16582333
-0.043952023
0.1693602
-0.043083965
0.17291315
-0.041835045
0.1764614
-0.040164655
0.17998062
-0.038019875
0.18343865
-0.035347852
0.18679215
-0.032125232
0.18998769
-0.028397312
0.19296898
-0.024306401
0.19568859
-0.020085893
0.19811932
-0.016011913
0.20025981
-0.012330909
0.20213246
-0.0091990835
0.20377539
-0.0066609671
0.20523316
-0.0046717962
0.20654846
-0.0031346671
0.20775977
-0.0019542335
0.20889429
-0.0010145241
0.20998744
-0.00034008241
0.00052458509
0.14330945
-0.0048630566
0.14105073
-0.006960663
0.1387878
-0.0086070371
0.13675477
-0.010229965
0.13497647
-0.01196848
0.13343608
-0.0137406
0.13213812
-0.015513458
0.13108887
-0.017283379
0.13028828
-0.019045095
0.12973232
-0.020794269
0.12941526
-0.022530466
0.12933049
-0.024255238
0.12947087
-0.025970741
0.12982892
-0.027679433
0.13039715
-0.029383615
0.13116834
-0.031084648
0.13213574
-0.032782123
0.13329326
-0.034473018
0.13463552
-0.036150852
0.13615788
-0.037804907
0.13785623
-0.039419592
0.1397268
-0.040974113
0.14176575
-0.042442519
0.14396871
-0.043794192
0.14633026
-0.044994845
0.14884339
-0.046007947
0.15149912
-0.046796472
0.15428616
-0.047324794
0.1571909
-0.047560409
0.16019779
-0.047475061
0.16329023
-0.047044455
0.16645179
-0.046245527
0.16966739
-0.045050642
0.17292307
-0.043420337
0.1762035
-0.041300311
0.17948716
-0.038631507
0.18274129
-0.035379367
0.1859204
-0.031576419
0.18897094
-0.027356937
0.19184183
-0.022956788
0.1944965
-0.018666577
0.1969208
-0.014755212
0.19912387
-0.011402159
0.20113252
-0.0086696087
0.20298308
-0.0065223571
0.20471316
-0.0048647557
0.20635888
-0.0035999492
0.20794606
-0.0026017069
0.20951126
-0.0019052785
-0.00099194505
0.1550644
-0.0024617049
0.15197362
-0.0038698773
0.14891019
-0.0055436133
0.14611948
-0.007439257
0.14360265
-0.0094516415
0.14135522
-0.011493179
0.13938106
-0.013539292
0.13768136
-0.015583681
0.13625461
-0.017618343
0.1350968
-0.019636457
0.13420145
-0.021635121
0.13356051
-0.023614297
0.13316517
-0.025575396
0.13300627
-0.027520535
0.1330746
-0.029451945
0.13336118
-0.03137123
0.13385757
-0.033278515
0.13455609
-0.035171538
0.13544998
-0.037044736
0.13653343
-0.038888362
0.1378016
-0.040687758
0.13925036
-0.042422881
0.14087606
-0.044068215
0.14267502
-0.04559315
0.14464306
-0.046962884
0.14677493
-0.04813982
0.14906382
-0.04908536
0.15150092
-0.0497619
0.15407532
-0.050134801
0.15677415
-0.050173892
0.15958348
-0.049853786
0.16248971
-0.049151764
0.16548123
-0.048042158
0.16854901
-0.046488121
0.17168486
-0.044436154
0.17487652
-0.041823166
0.17810146
-0.038604314
0.18132298
-0.034797933
0.18449226
-0.030526222
0.18755731
-0.026021838
0.19047504
-0.021584303
0.19322103
-0.017501203
0.19579297
-0.013974104
0.19820736
-0.011083995
0.20049282
-0.0088078217
0.20268193
-0.0070538585
0.20480847
-0.0057264869
0.2068964
-0.0046896367
0.20898467
-0.00399355
-0.003050539
0.19671694
0.0017446611
-0.20092331
0.19329457
-0.00044750243
0.19030239
-0.002551432
0.18757788
-0.0047147547
0.18508333
-0.0069570913
0.18279456
-0.0092044072
0.1806952
-0.011439927
0.17877751
-0.013665994
0.17703841
-0.01587924
0.17547632
-0.018074367
0.17408975
-0.020248556
0.17287665
-0.022401197
0.17183404
-0.024532779
0.17095784
-0.026644343
0.17024294
-0.028737046
0.16968322
-0.030811509
0.16927172
-0.032867009
0.16900078
-0.034900606
0.16886231
-0.036906262
0.16884793
-0.038873982
0.16894926
-0.040789089
0.16915812
-0.042631735
0.16946668
-0.044376776
0.16986761
-0.045994086
0.17035411
-0.04744938
0.17091982
-0.048705525
0.17155869
-0.049724239
0.17226483
-0.05046804
0.17303225
-0.050902216
0.17385481
-0.050996453
0.17472646
-0.050725433
0.17564181
-0.050067116
0.17659704
-0.048997387
0.17759048
-0.047481559
0.17862214
-0.045467812
0.1796916
-0.042892628
0.18079459
-0.039707303
0.1819196
-0.035922948
0.18304642
-0.031653036
0.18414759
-0.027123016
0.18519286
-0.022629568
0.18615481
-0.01846315
0.18701399
-0.014833291
0.18776156
-0.011831567
0.18839941
-0.0094456698
0.18893646
-0.0075909076
0.18938858
-0.0061786042
0.18976467
-0.0050657294
0.19009792
-0.0043268014
-0.0032991589
0.22420245
0.0047760232
-0.22723382
0.22111672
0.0026382274
0.21829863
0.00026666558
0.21560622
-0.0020223526
0.21299263
-0.0043434965
0.21048776
-0.0066995391
0.20810905
-0.0090612135
0.20586205
-0.011418999
0.2037532
-0.013770385
0.20178951
-0.016110681
0.19997619
-0.01843523
0.19831628
-0.02074129
0.19681102
-0.023027522
0.19545989
-0.025293213
0.19426066
-0.027537816
0.19320956
-0.029760407
0.19230149
-0.031958938
0.19153028
-0.0341294
0.19088899
-0.03626497
0.19037019
-0.038355177
0.18996629
-0.040385192
0.18966987
-0.042335321
0.18947394
-0.044180841
0.18937209
-0.045892241
0.18935867
-0.047435954
0.18942869
-0.048775546
0.18957776
-0.049873307
0.18980182
-0.050692105
0.19009694
-0.051197334
0.19045913
-0.051358646
0.19088454
-0.051150839
0.19137003
-0.050552611
0.19191427
-0.049541626
0.19251865
-0.048085942
0.19318733
-0.046136484
0.19392536
-0.043630659
0.19473507
-0.040517014
0.19561161
-0.036799485
0.1965397
-0.032581126
0.19749337
-0.028076685
0.19843928
-0.023575478
0.19934279
-0.019366665
0.20017469
-0.015665189
0.20091601
-0.012572886
0.20155992
-0.010089585
0.20210925
-0.0081402314
0.20257548
-0.0066448338
0.20296662
-0.0054568734
0.20331217
-0.0046723556
-0.0035603259
0.25038888
0.0071755607
-0.25278842
0.24788346
0.0051436552
0.24538373
0.0027663933
0.24290803
0.00045334424
0.24042245
-0.0018579146
0.2379462
-0.0042232934
0.23550982
-0.0066248256
0.23313286
-0.0090420433
0.2308311
-0.011468621
0.22861987
-0.013899451
0.22651228
-0.016327641
0.22451835
-0.018747362
0.22264535
-0.02115452
0.22089806
-0.023545925
0.21927891
-0.025918669
0.21778816
-0.028269658
0.21642418
-0.030594954
0.21518377
-0.032888986
0.21406252
-0.035143723
0.21305522
-0.037347882
0.21215626
-0.039486223
0.21135998
-0.041539046
0.21066111
-0.043481967
0.21005497
-0.045286103
0.20953769
-0.046918677
0.20910623
-0.048344082
0.20875825
-0.049525333
0.20849194
-0.050425795
0.20830569
-0.051011076
0.20819787
-0.051250832
0.20816698
-0.051119945
0.20821216
-0.05059779
0.20833439
-0.049663863
0.20853781
-0.048289362
0.20883021
-0.046428876
0.20922168
-0.044022131
0.20972097
-0.041016311
0.21033021
-0.037408722
0.21103995
-0.033290861
0.21182692
-0.028863659
0.21265604
-0.024404601
0.21348645
-0.020197072
0.21427961
-0.016458353
0.21500639
-0.013299665
0.21565074
-0.010733932
0.21620876
-0.0086982474
0.21668673
-0.0071228035
0.21709184
-0.0058619925
0.21744777
-0.0050282782
-0.0038342361
0.2749995
0.0089520673
-0.27677601
0.27310544
0.0070377169
0.27105008
0.0048217495
0.26891251
0.0025909195
0.26670475
0.00034984677
0.26443615
-0.001954692
0.26213166
-0.0043203405
0.25981517
-0.0067255496
0.25750643
-0.0091598805
0.25522437
-0.011617392
0.25298687
-0.014090147
0.25080944
-0.016569929
0.24870484
-0.01904992
0.24668322
-0.021524304
0.24475215
-0.023987596
0.2429167
-0.026434212
0.2411797
-0.028857951
0.239542
-0.031251293
0.23800291
-0.033604631
0.23656056
-0.035905528
0.23521238
-0.038138043
0.23395556
-0.040282227
0.23278747
-0.042313873
0.23170598
-0.044204616
0.23070973
-0.045922431
0.2297982
-0.047432549
0.22897162
-0.04869875
0.22823077
-0.049684951
0.22757671
-0.050357011
0.22701045
-0.050684575
0.22653302
-0.050642514
0.22614595
-0.050210724
0.22585251
-0.049370417
0.22565922
-0.048096076
0.22557696
-0.046346615
0.22562016
-0.044065333
0.22580342
-0.041199571
0.2261357
-0.037741004
0.22661396
-0.033769118
0.22721891
-0.029468604
0.22791536
-0.025101052
0.22865786
-0.020939573
0.22939976
-0.017200258
0.23010228
-0.01400218
0.23074006
-0.011371715
0.23130201
-0.0092601932
0.23178861
-0.0076094117
0.2322056
-0.0062789781
0.23257053
-0.005393211
-0.0041200051
0.29778227
0.01011142
-0.29894162
0.29648598
0.008334009
0.29496072
0.0063470059
0.29327222
0.0042794234
0.29145774
0.0021643285
0.28952863
-2.5580248e-05
0.28750213
-0.0022938426
0.28540082
-0.0046242405
0.28324538
-0.0070044414
0.2810551
-0.0094271079
0.27884897
-0.011884022
0.27664492
-0.014365881
0.27445898
-0.016863977
0.27230504
-0.019370367
0.27019478
-0.021877334
0.26813757
-0.024377
0.26614056
-0.02686094
0.26420887
-0.02931961
0.26234593
-0.03174169
0.26055381
-0.034113405
0.25883368
-0.036417914
0.25718628
-0.038634825
0.25561234
-0.040739928
0.25411295
-0.042705233
0.25268988
-0.044499361
0.25134565
-0.046088312
0.2500835
-0.0474366
0.24890722
-0.048508679
0.24782086
-0.049270642
0.24682835
-0.049692072
0.24593354
-0.049747701
0.24514053
-0.049417715
0.24445488
-0.048684769
0.24388532
-0.047526509
0.24344519
-0.045906493
0.24315243
-0.043772573
0.2430266
-0.041073733
0.24308295
-0.037797361
0.24332503
-0.03401119
0.24373853
-0.029882111
0.24428996
-0.025652475
0.24493127
-0.02158089
0.2456095
-0.017878489
0.24627735
-0.014670029
0.2469006
-0.011994965
0.24746075
-0.0098203405
0.2479521
-0.0081007587
0.24837817
-0.0067050477
0.24875035
-0.0057653927
-0.0044163231
0.31903466
0.010721542
-0.31964478
0.31827102
0.0090976506