/*--------------------------------*- C++ -*----------------------------------*\
  =========                 |
  \\      /  F ield         | OpenFOAM: The Open Source CFD Toolbox
   \\    /   O peration     | Website:  https://openfoam.org
    \\  /    A nd           | Version:  6
     \\/     M anipulation  |
\*---------------------------------------------------------------------------*/
FoamFile
{
    version     2.0;
    format      ascii;
    class       surfaceScalarField;
    location    "18";
    object      phi_0;
}
// * * * * * * * * * * * * * * * * * * * * * * * * * * * * * * * * * * * * * //

dimensions      [0 3 -1 0 0 0 0];

internalField   nonuniform List<scalar> 
18180
(
0.00033613412
-0.00019472754
-0.00014140655
0.0013785481
-0.001498393
0.00045597912
0.0031904255
-0.0036025555
0.0017906781
0.0058335924
-0.0064186217
0.0037754548
0.0093678367
-0.0098909016
0.0063566573
0.01384847
-0.013974812
0.0094941794
0.019323187
-0.018631163
0.013156445
0.025828616
-0.023823203
0.017317774
0.033386717
-0.029513292
0.021955191
0.042001349
-0.03566014
0.027045508
0.051655365
-0.042217034
0.032563018
0.062308675
-0.049131017
0.038477708
0.073897706
-0.05634303
0.044753999
0.08633675
-0.063789027
0.051349984
0.099521768
-0.071402133
0.058217114
0.11333715
-0.079115885
0.065300504
0.12766482
-0.086868364
0.072540694
0.14240012
-0.094606768
0.079871468
0.1575227
-0.10230829
0.087185707
-0.10996833
0.094283171
0.17320786
0.00041695682
-0.00061168434
0.001686266
-0.0027677021
0.0038617529
-0.0057780424
0.0069947316
-0.0095516003
0.011131588
-0.014027758
0.016309553
-0.019152778
0.022552169
-0.024873779
0.029864879
-0.031135913
0.038231096
-0.037879508
0.047609221
-0.045038264
0.057931095
-0.052538908
0.069102281
-0.060302203
0.081004404
-0.068245154
0.093499595
-0.076284219
0.10643673
-0.084339265
0.11965874
-0.092337892
0.13300992
-0.10021955
0.14634349
-0.10794034
0.15952129
-0.11548609
-0.1227924
0.17234536
0.00050198663
-0.0011136709
0.0020015684
-0.0042672839
0.0045364214
-0.0083128954
0.008139929
-0.013155108
0.012836224
-0.018724053
0.018634174
-0.024950727
0.025521841
-0.031761446
0.033461966
-0.039076038
0.04238897
-0.046806513
0.052208032
-0.054857326
0.062796612
-0.063127487
0.074008551
-0.071514143
0.085680545
-0.079917148
0.097640411
-0.088244085
0.10971627
-0.096415128
0.12174544
-0.10436706
0.13358169
-0.1120558
0.14509897
-0.11945761
0.15618411
-0.12657124
-0.13335594
0.16674765
0.00058914628
-0.0017028172
0.002315402
-0.0059935395
0.0051916592
-0.011189153
0.0092243392
-0.017187788
0.014405292
-0.023905006
0.020704381
-0.031249817
0.028063911
-0.039120976
0.036395407
-0.047407534
0.045579244
-0.05599035
0.055467477
-0.064745559
0.065889837
-0.073549847
0.076662418
-0.082286723
0.087598163
-0.090852893
0.098517983
-0.099163905
0.10926118
-0.10715833
0.11969398
-0.11479986
0.12971517
-0.12207699
0.1392581
-0.12900054
0.14828677
-0.13559991
-0.14188454
0.15681537
0.00067499845
-0.0023778156
0.0026141893
-0.0079327303
0.0057962639
-0.014371227
0.010191003
-0.021582527
0.01574808
-0.029462082
0.022389204
-0.037890941
0.030003995
-0.046735766
0.038449737
-0.055853276
0.047555248
-0.06509586
0.057128587
-0.074318897
0.066967809
-0.08338907
0.076873476
-0.09219239
0.086661331
-0.10064075
0.096173564
-0.10867614
0.10528728
-0.11627204
0.11391936
-0.12343194
0.12202747
-0.1301851
0.12960756
-0.13658063
0.13668819
-0.14268054
-0.14853689
0.14334054
0.00075523486
-0.0031330505
0.0028816156
-0.010059111
0.0063144215
-0.017804033
0.010977761
-0.026245867
0.016771021
-0.035255342
0.023562058
-0.044681978
0.031186185
-0.054359892
0.039450423
-0.064117515
0.048142497
-0.073787934
0.057043364
-0.083219765
0.065941533
-0.092287239
0.074647107
-0.10089796
0.083003605
-0.10899725
0.090896081
-0.11656861
0.098254674
-0.12363064
0.1050536
-0.13023086
0.11130632
-0.13643783
0.11705813
-0.14233243
0.12237758
-0.14799999
-0.15351683
0.12735752
0.0008250468
-0.0039580973
0.0031001161
-0.01233418
0.0067092582
-0.021413175
0.011523973
-0.031060581
0.01738868
-0.04112005
0.024116677
-0.051409976
0.03149371
-0.061736925
0.039287489
-0.071911293
0.047261525
-0.08176197
0.055191023
-0.091149263
0.062878232
-0.099974448
0.070164873
-0.1081846
0.076939943
-0.11577232
0.083142079
-0.12277075
0.088756702
-0.12924526
0.093808978
-0.13528314
0.098354204
-0.14098305
0.10246743
-0.14644566
0.10623399
-0.15176655
-0.15702902
0.10974619
0.00087925092
-0.0048373482
0.0032518375
-0.014706767
0.0069456125
-0.02510695
0.011776042
-0.03589101
0.017532579
-0.046876587
0.023978983
-0.05785638
0.030862248
-0.06862019
0.037927037
-0.078976082
0.044932804
-0.088767736
0.051670447
-0.097886906
0.057975558
-0.10627956
0.063736219
-0.11394527
0.068894531
-0.12093063
0.073442233
-0.12731845
0.077411831
-0.13321486
0.080865153
-0.13873646
0.083881422
-0.14399932
0.086546627
-0.14911086
0.088945409
-0.15416533
-0.15924089
0.091157272
0.00091143787
-0.005748786
0.0033186535
-0.017113983
0.0069922621
-0.028780559
0.011692474
-0.040591222
0.017158767
-0.052342881
0.023115615
-0.063813227
0.029286516
-0.074791092
0.035411849
-0.085101414
0.041266741
-0.094622629
0.046675437
-0.1032956
0.051519566
-0.11112369
0.055739308
-0.11816501
0.059327939
-0.12451926
0.062321436
-0.13031195
0.064785443
-0.13567887
0.066801976
-0.14075299
0.068457787
-0.14565513
0.069835699
-0.15048877
0.071009318
-0.15533895
-0.16027217
0.0720406
0.00091819824
-0.0066669842
0.0032919351
-0.019487719
0.0068357418
-0.032324365
0.011259254
-0.045014734
0.016261675
-0.057345302
0.02154268
-0.069094233
0.026820181
-0.080068592
0.031849091
-0.090130324
0.036436944
-0.099210483
0.040453122
-0.10731178
0.043830256
-0.11450082
0.04655822
-0.12089297
0.048672592
-0.12663363
0.050240249
-0.13187961
0.051344754
-0.13678337
0.052073694
-0.14148193
0.052509312
-0.14609075
0.05272288
-0.15070234
0.052772451
-0.15538852
0.05270221
-0.16020193
-0.000214783
0.00021478326
-2.3056747e-10
-0.00071804532
0.00050326297
-6.0654382e-10
-0.0014206142
0.00070256988
-9.3499881e-10
-0.0022544592
0.0008338463
-1.2214135e-09
-0.0031649715
0.00091051383
-1.4734998e-09
-0.004107576
0.00094260619
-1.6932555e-09
-0.0050452908
0.00093771679
-1.8855625e-09
-0.0059466907
0.00090140203
-2.0501279e-09
-0.0067843042
0.00083761583
-2.1884044e-09
-0.0075333566
0.00074905479
-2.2991116e-09
-0.0081707598
0.00063740566
-2.3789659e-09
-0.008674293
0.00050353578
-2.4284299e-09
-0.0090219428
0.00034765236
-2.4386434e-09
-0.0091913891
0.00016944886
-2.4128971e-09
-0.0091596705
-3.1716149e-05
-2.3369221e-09
-0.0089031518
-0.00025651633
-2.2206793e-09
-0.0083977539
-0.00050539573
-2.0390861e-09
-0.007618453
-0.000779299
-1.8112582e-09
-0.0065386941
-0.0010797572
-1.5017631e-09
-0.0013926427
-0.0051460502
-1.1264539e-09
-0.00019886123
0.00041364452
-0.00066003228
0.00096443406
-0.0012959142
0.0013384519
-0.0020385806
0.0015765127
-0.0028326692
0.0017046025
-0.0036321726
0.0017421097
-0.0043980974
0.0017036416
-0.0050964929
0.0015997975
-0.0056968826
0.0014380057
-0.0061710204
0.0012231926
-0.0064918799
0.00095826526
-0.0066328222
0.00064447823
-0.0065669055
0.00028173567
-0.0062663153
-0.00013114122
-0.0057019523
-0.00059607903
-0.0048432758
-0.0011151926
-0.0036584511
-0.0016902204
-0.0021142422
-0.0023235078
-0.00017575202
-0.0030182473
-0.0037438379
0.0021754432
-0.00016694252
0.00058058706
-0.0005439221
0.0013414137
-0.001047037
0.0018415668
-0.0016091133
0.0021385889
-0.0021737505
0.0022692398
-0.0026925174
0.0022608767
-0.0031228442
0.0021339684
-0.0034262091
0.0019031625
-0.0035666719
0.0015784686
-0.0035096914
0.0011662121
-0.0032211543
0.00066972824
-0.002666561
8.988495e-05
-0.0018103159
-0.00057450935
-0.00061514671
-0.0013263103
0.000958404
-0.0021696297
0.0029523675
-0.003109156
0.0054114136
-0.0041492665
0.0083825009
-0.0052945949
0.011914753
-0.0065504988
-0.0078661714
0.016037086
-0.00012181187
0.00070239896
-0.00037879598
0.0015983978
-0.00069198808
0.002154759
-0.00099530448
0.0024419054
-0.0012310345
0.0025049698
-0.001347571
0.0023774132
-0.0012976361
0.0020840336
-0.0010367081
0.0016422344
-0.00052173279
0.0010634934
0.0002899138
0.0003545656
0.0014412817
-0.00048163963
0.0029765418
-0.001445375
0.0049415657
-0.0025395332
0.0073844366
-0.0037691812
0.010355979
-0.0051411722
0.013910358
-0.0066635347
0.018105514
-0.0083444225
0.023002871
-0.010191952
0.028667055
-0.012214683
-0.014338495
0.035139379
-6.7023922e-05
0.00076942291
-0.00017625645
0.0017076304
-0.0002538707
0.0022323733
-0.00023485519
0.0024228899
-5.9942566e-05
0.0023300572
0.0003260874
0.0019913833
0.00097579957
0.0014343215
0.0019403348
0.00067769929
0.0032704412
-0.000266613
0.0050172899
-0.0013922831
0.0072330509
-0.0026974005
0.0099712912
-0.0041836153
0.013287272
-0.0058555135
0.017238197
-0.0077201067
0.021883474
-0.0097864486
0.027285202
-0.012065263
0.033508983
-0.014568204
0.040624421
-0.017307389
0.048705943
-0.020296204
-0.023437281
0.057804728
-6.0948209e-06
0.00077551775
5.2012437e-05
0.0016495231
0.00024373695
0.0020406488
0.00063332403
0.0020333028
0.0012817723
0.001681609
0.0022479729
0.0010251828
0.0035896808
9.2613642e-05
0.0053644009
-0.0010970208
0.0076300222
-0.0025322342
0.010445142
-0.0042074029
0.01386922
-0.0061214788
0.017962576
-0.008276971
0.022786156
-0.010679093
0.028401158
-0.013335109
0.034868653
-0.016253943
0.042249519
-0.019446129
0.050605279
-0.022923964
0.059999979
-0.026702089
0.070504122
-0.030800348
-0.035104376
0.082171218
5.8207032e-05
0.00071731074
0.00029643609
0.0014112941
0.00078094546
0.0015561395
0.0015756189
0.0012386295
0.0027431487
0.0005140792
0.0043457206
-0.00057738916
0.0064455392
-0.0020072049
0.0091051108
-0.0037565923
0.01238727
-0.0058143933
0.016355027
-0.0081751598
0.021071113
-0.010837565
0.026597226
-0.013803085
0.032993019
-0.017074886
0.040314857
-0.020656947
0.048614473
-0.024553559
0.057937906
-0.028769562
0.068325712
-0.03331177
0.079815846
-0.038192222
0.09245242
-0.043436922
-0.048934338
0.10628238
0.00012425918
0.00059305159
0.00055080412
0.00098474919
0.0013439761
0.00076296746
0.0025674919
1.5113719e-05
0.0042853376
-0.0012037664
0.0065619505
-0.002854002
0.00946203
-0.0049072844
0.013050188
-0.00734475
0.017390325
-0.010154531
0.022544627
-0.013329462
0.028572225
-0.016865162
0.035527527
-0.020758387
0.043458265
-0.025005623
0.052403293
-0.029601975
0.062390299
-0.034540565
0.073433756
-0.039813019
0.085534227
-0.045412241
0.098680918
-0.051338913
0.11286239
-0.05761839
-0.064173606
0.12810165
0.00019144721
0.0004016044
0.00081207062
0.00036412581
0.0019248784
-0.00034984027
0.0035930082
-0.001653016
0.0058804584
-0.0034912167
0.0088515993
-0.0058251428
0.012570296
-0.0086259815
0.017098687
-0.01187314
0.022495564
-0.015551408
0.028814384
-0.019648281
0.036100945
-0.024151723
0.044390801
-0.029048243
0.053706475
-0.034321297
0.064054552
-0.039950053
0.075422686
-0.045908699
0.087776592
-0.052166925
0.10105792
-0.058693563
0.11518561
-0.065466604
0.13006853
-0.072501309
-0.079798572
0.14569349
0.00026019787
0.0010803028
0.0025211407
0.0046435795
0.0075090202
0.011178057
0.015708521
0.021153155
0.027556937
0.034954164
0.043365458
0.052794923
0.063227625
0.074627556
0.086935971
0.10006955
0.11391668
0.12832155
0.14300594
0.15749054
-0.0029304141
-0.0022156351
-7.8875829e-10
-0.00037815474
-0.0025522594
3.073832e-10
0.0024943428
-0.0028724989
1.6739996e-09
0.005631124
-0.0031367842
3.3109242e-09
0.0090104359
-0.003379317
5.1700254e-09
0.012622267
-0.0036118389
7.2155895e-09
0.01645536
-0.0038331022
9.4906043e-09
0.020499984
-0.0040446356
1.1855738e-08
0.0247498
-0.0042498298
1.4242562e-08
0.029201012
-0.0044512289
1.6544187e-08
0.033851705
-0.0046507113
1.8753605e-08
0.038701697
-0.0048500128
2.0769037e-08
0.043752335
-0.0050506599
2.2574268e-08
0.049006108
-0.005253797
2.4050646e-08
0.054466188
-0.0054601052
2.5167175e-08
0.060135886
-0.0056697243
2.5801772e-08
0.066018009
-0.005882149
2.593312e-08
0.072114111
-0.0060961274
2.5476222e-08
0.078423667
-0.0063095807
2.444778e-08
0.0849432
-0.0065195563
2.2819751e-08
0.091665405
-0.0067222259
2.0653442e-08
0.098578329
-0.0069129414
1.7981392e-08
0.10566467
-0.0070863581
1.4899714e-08
0.11290128
-0.0072366213
1.1493181e-08
0.12025888
-0.0073576092
7.8650045e-09
0.12770209
-0.0074432082
4.1372855e-09
0.13518967
-0.0074875807
3.781916e-10
0.14267504
-0.0074853731
-3.2677e-09
0.15010684
-0.0074317866
-6.8006123e-09
0.15742927
-0.0073224279
-1.0053771e-08
0.16458217
-0.0071528867
-1.3098714e-08
0.17150028
-0.0069180928
-1.5736441e-08
0.17811205
-0.0066117509
-1.8074228e-08
0.18433853
-0.0062264642
-1.9879729e-08
0.19009391
-0.0057553529
-2.1256139e-08
0.1952896
-0.0051956677
-2.1973729e-08
0.19984345
-0.0045538294
-2.2126868e-08
0.20369328
-0.0038498066
-2.1592307e-08
0.20681111
-0.0031178117
-2.0493002e-08
0.20921238
-0.0024012456
-1.8878599e-08
0.21095517
-0.0017427758
-1.6899888e-08
0.21212885
-0.0011736683
-1.4732369e-08
0.21283629
-0.00070742685
-1.2510986e-08
0.21317653
-0.00034022828
-1.0373337e-08
0.2132335
-5.6961734e-05
-8.3736959e-09
0.21307166
0.00016185102
-6.5264088e-09
0.21273854
0.00033312252
-4.8220264e-09
0.21226532
0.00047322029
-3.2444034e-09
0.21168326
0.00058205979
-1.877975e-09
0.00071352254
-8.8604983e-11
0.0043015285
-0.0043417202
0.0067556802
-0.005006411
0.0095137487
-0.0056305672
0.012513887
-0.0061369222
0.015739815
-0.0066052448
0.019186393
-0.0070584175
0.0228442
-0.0074909089
0.026704608
-0.0079050435
0.030762414
-0.0083076359
0.035014695
-0.00870351
0.039460054
-0.0090960696
0.044098582
-0.0094885407
0.04893173
-0.0098838075
0.05396197
-0.010284037
0.059192383
-0.010690518
0.064626174
-0.011103515
0.070266083
-0.011522058
0.076113696
-0.01194374
0.082168667
-0.012364551
0.088427891
-0.01277878
0.094884666
-0.013179002
0.1015279
-0.013556178
0.10834144
-0.013899892
0.11530352
-0.014198705
0.12238654
-0.014440632
0.12955701
-0.014613676
0.13677579
-0.014706361
0.14399857
-0.014708149
0.15117638
-0.014609597
0.15825603
-0.014402084
0.16518014
-0.014076991
0.17188647
-0.013624419
0.17830672
-0.013032004
0.18436529
-0.012285035
0.18997943
-0.011369498
0.19506288
-0.010279119
0.19953443
-0.009025376
0.20333103
-0.0076464065
0.20642198
-0.0062087629
0.2088185
-0.0047977612
0.21057372
-0.0034980029
0.2117722
-0.0023721394
0.21251274
-0.0014479746
0.2128915
-0.00071898299
0.21299058
-0.00015604053
0.21287346
0.00027896904
0.21258727
0.00061930956
0.212163
0.0008974909
0.21163204
0.0011130235
0.0013739445
0.017963227
-0.0062678612
0.020192683
-0.0072358661
0.022696031
-0.0081339155
0.025404504
-0.0088453952
0.028310952
-0.0095116931
0.031418421
-0.010165886
0.034720938
-0.010793427
0.038211923
-0.011396028
0.041888086
-0.011983798
0.045747945
-0.012563369
0.049790939
-0.013139063
0.05401754
-0.013715141
0.058429261
-0.014295529
0.063028422
-0.014883198
0.067817826
-0.015479922
0.07280038
-0.01608607
0.077978617
-0.016700295
0.083354101
-0.017319224
0.088926755
-0.017937206
0.094694115
-0.018546141
0.10065056
-0.019135446
0.10678656
-0.019692183
0.11308804
-0.020201371
0.11953583
-0.020646495
0.12610538
-0.02101018
0.13276668
-0.021274973
0.13948444
-0.021424119
0.14621849
-0.021442204
0.15292431
-0.021315417
0.15955345
-0.02103122
0.16605363
-0.020577173
0.17236824
-0.019939033
0.1784351
-0.01909886
0.18418493
-0.018034872
0.18954098
-0.016725539
0.19442153
-0.01515967
0.1987474
-0.013351254
0.20245415
-0.011353153
0.20550602
-0.0092606324
0.20790628
-0.0071980167
0.20969864
-0.005290372
0.21095843
-0.0036319267
0.21177675
-0.0022662946
0.21224416
-0.001186395
0.21243932
-0.0003511975
0.21242386
0.00029443438
0.21224413
0.00079903305
0.21193081
0.001210814
0.21151554
0.0015282908
0.0019141291
0.036727365
-0.0078558475
0.038581111
-0.0090896123
0.040667012
-0.010219816
0.042915621
-0.011094004
0.045332043
-0.011928115
0.047928221
-0.012762064
0.050702719
-0.013567924
0.053651921
-0.01434523
0.056774808
-0.015106686
0.06007147
-0.01586003
0.063542223
-0.016609816
0.067187814
-0.017360733
0.071009585
-0.0181173
0.075009387
-0.018883
0.079189399
-0.019659934
0.083551879
-0.02044855
0.088098828
-0.021247243
0.092831535
-0.022051932
0.097750037
-0.022855707
0.10285248
-0.023648585
0.10813446
-0.02441742
0.1135883
-0.02514603
0.11920249
-0.02581556
0.1249611
-0.026405102
0.13084345
-0.026892535
0.13682399
-0.027255514
0.14287237
-0.027472498
0.14895377
-0.027523597
0.15502936
-0.027391008
0.16105682
-0.02705868
0.16699054
-0.026510897
0.1727813
-0.025729793
0.17837508
-0.024692639
0.18371133
-0.023371125
0.18872174
-0.021735948
0.19333144
-0.019769363
0.19746474
-0.017484561
0.20105604
-0.014944453
0.20406332
-0.012267913
0.20647934
-0.0096140369
0.20833503
-0.0071460628
0.20969294
-0.0049898334
0.21063337
-0.0032067225
0.21123899
-0.0017920176
0.21158352
-0.00069572205
0.21172592
0.00015203263
0.21171146
0.00081349405
0.21157032
0.0013519463
0.21133457
0.0017640422
0.002267756
0.058879111
-0.0089302297
0.060180292
-0.010390794
0.061666685
-0.011706209
0.063279179
-0.012706498
0.065037495
-0.013686432
0.066960164
-0.014684733
0.069050307
-0.015658067
0.071308041
-0.016602964
0.073734455
-0.017533099
0.07633072
-0.018456295
0.079097655
-0.019376751
0.082035905
-0.020298983
0.085146173
-0.021227568
0.088429336
-0.022166163
0.091886439
-0.023117037
0.095518589
-0.0240807
0.099326769
-0.025055423
0.10331155
-0.026036711
0.10747268
-0.027016839
0.11180861
-0.027984515
0.1163159
-0.028924714
0.12098865
-0.029818773
0.12581784
-0.030644758
0.1307909
-0.03137816
0.13589122
-0.031992858
0.14109799
-0.032462284
0.14638616
-0.032760663
0.15172666
-0.032864094
0.15708684
-0.032751194
0.16243102
-0.032402854
0.16772083
-0.031800711
0.1729152
-0.030924163
0.17796936
-0.029746796
0.18283294
-0.028234708
0.18744794
-0.026350955
0.19174837
-0.024069792
0.1956639
-0.021400088
0.19912887
-0.018409426
0.20209508
-0.01523412
0.2045437
-0.012062654
0.20649089
-0.0090932529
0.20798405
-0.0064829982
0.2090904
-0.0043130718
0.20988289
-0.0025845031
0.21042902
-0.0012418585
0.21078441
-0.00020335075
0.21099287
0.00060502759
0.211084
0.0012608194
0.21109037
0.0017576713
0.0023697716
0.082527597
-0.0092866082
0.083084218
-0.010947415
0.083784799
-0.01240679
0.084593901
-0.0135156
0.085544805
-0.014637336
0.08665731
-0.015797238
0.087937863
-0.016938619
0.089390494
-0.018055595
0.091017712
-0.019160318
0.092820705
-0.020259288
0.094799952
-0.021355997
0.09695533
-0.022454361
0.099286266
-0.023558505
0.10179204
-0.02467194
0.10447198
-0.025796973
0.10732547
-0.02693419
0.11035193
-0.028081889
0.11355069
-0.029235462
0.11692068
-0.030386834
0.12046016
-0.031523994
0.1241662
-0.032630751
0.12803417
-0.033686745
0.13205722
-0.03466781
0.13622573
-0.035546665
0.14052685
-0.03629398
0.14494423
-0.036879663
0.14945786
-0.037274295
0.15404421
-0.037450441
0.15867655
-0.037383535
0.16332554
-0.037051846
0.16795981
-0.036434985
0.17254624
-0.035510586
0.1770493
-0.034249857
0.18142927
-0.032614677
0.18563948
-0.030561168
0.18962439
-0.028054702
0.19332094
-0.025096638
0.19666528
-0.021753763
0.19960426
-0.018173103
0.20210789
-0.014566283
0.20417708
-0.011162444
0.20584299
-0.0081489026
0.20715835
-0.0056284382
0.20818515
-0.0036113011
0.20898375
-0.0020404531
0.20960574
-0.00082534907
0.21009327
0.00011749873
0.21047515
0.00087894524
0.21078461
0.001448213
0.0021568333
0.10573837
-0.0087425993
0.1053805
-0.010589544
0.10513632
-0.012162608
0.10501331
-0.013392591
0.1050519
-0.014675928
0.10526544
-0.016010772
0.10566172
-0.017334898
0.10624791
-0.018641789
0.10702681
-0.019939222
0.10799836
-0.021230836
0.10916155
-0.022519185
0.11051462
-0.023807428
0.11205506
-0.025098949
0.11378
-0.026396879
0.11568652
-0.027703487
0.11777182
-0.029019491
0.12003332
-0.03034339
0.12246862
-0.031670767
0.12507541
-0.032993625
0.12785122
-0.0342998
0.13079308
-0.03557261
0.1338971
-0.036790764
0.13715796
-0.037928667
0.14056838
-0.03895709
0.14411866
-0.039844262
0.14779627
-0.040557271
0.1515856
-0.041063627
0.15546798
-0.041332818
0.15942189
-0.041337449
0.16342357
-0.041053518
0.16744772
-0.04045914
0.17146822
-0.039531082
0.17545794
-0.038239578
0.17938724
-0.036543983
0.18322088
-0.034394809
0.18691466
-0.031748479
0.19041446
-0.02859644
0.19366039
-0.024999689
0.19659652
-0.021109234
0.19918334
-0.017153104
0.20140743
-0.013386528
0.2032838
-0.01002528
0.20485035
-0.0071949897
0.20615741
-0.0049183564
0.20725756
-0.0031406082
0.20819796
-0.0017657486
0.20901878
-0.0007033188
0.2097479
0.00014982711
0.21041936
0.00077675214
0.0015677457
0.12659014
-0.0072310821
0.1252393
-0.0092387054
0.12396808
-0.010891393
0.1228623
-0.012286803
0.12195966
-0.013773292
0.12125943
-0.015310544
0.12076896
-0.016844423
0.12049667
-0.018369503
0.12044436
-0.019886914
0.12060983
-0.0213963
0.12098962
-0.022898976
0.12157955
-0.024397362
0.12237474
-0.025894133
0.12336986
-0.027392003
0.12455957
-0.028893194
0.12593872
-0.030398647
0.12750257
-0.031907238
0.12924682
-0.033415013
0.13116761
-0.034914423
0.13326145
-0.036393641
0.13552492
-0.037836077
0.13795435
-0.039220188
0.14054535
-0.040519673
0.14329236
-0.041704099
0.14618808
-0.04273998
0.14922302
-0.043592217
0.1523852
-0.044225808
0.15565995
-0.044607566
0.15903006
-0.044707561
0.16247632
-0.044499773
0.16597834
-0.043961161
0.16951562
-0.04306836
0.17306797
-0.041791934
0.17661453
-0.040090543
0.18013066
-0.037910934
0.18358357
-0.035201391
0.18692924
-0.031942105
0.19011378
-0.028184231
0.19308107
-0.024076531
0.19578463
-0.019856663
0.19819867
-0.01580057
0.20032332
-0.012149929
0.20218206
-0.0090537274
0.20381353
-0.0065498287
0.20526228
-0.0045893521
0.20657066
-0.0030741318
0.20777671
-0.0019093664
0.2089072
-0.00098066355
0.20999712
-0.00031317235
0.0005438874
0.14334445
-0.0048820353
0.14108739
-0.0069816542
0.13882632
-0.0086303152
0.13679525
-0.010255739
0.13501899
-0.01199703
0.13348072
-0.013772277
0.13218494
-0.015548642
0.13113793
-0.01732249
0.13033961
-0.019088595
0.12978597
-0.020842655
0.12947125
-0.022584258
0.12938885
-0.024314962
0.12953162
-0.026036907
0.12989212
-0.027752496
0.13046286
-0.029463934
0.13123664
-0.031172429
0.13220676
-0.032877359
0.13336717
-0.034575423
0.13471254
-0.036259794
0.13623825
-0.03791935
0.13794023
-0.039538056
0.1398147
-0.041094661
0.1418578
-0.042562773
0.14406509
-0.043911391
0.14643105
-0.045105936
0.14894855
-0.046109715
0.15160843
-0.046885684
0.15439921
-0.047398352
0.15730713
-0.047615483
0.16031651
-0.047509153
0.16341069
-0.047055339
0.16657332
-0.046230985
0.16978941
-0.045008028
0.17304507
-0.043346207
0.17632478
-0.041190645
0.17960647
-0.038483076
0.1828566
-0.035192238
0.18602896
-0.031356592
0.18906979
-0.027117356
0.19192851
-0.022715387
0.19456967
-0.018441725
0.19698048
-0.014560737
0.19917121
-0.011244463
0.20116934
-0.008547961
0.20301141
-0.0064314224
0.20473488
-0.0047975934
0.20637549
-0.0035499768
0.20795874
-0.0025639219
0.20952077
-0.0018751973
-0.00097035737
0.15509011
-0.0024816007
0.15200061
-0.003892153
0.14893865
-0.0055683547
0.14614948
-0.0074665714
0.14363423
-0.0094817795
0.14138844
-0.011526482
0.13941593
-0.013576133
0.1377179
-0.015624465
0.13629282
-0.017663516
0.13513667
-0.019686504
0.13424297
-0.02169055
0.13360363
-0.023675628
0.13320986
-0.025643136
0.13305251
-0.027595147
0.13312238
-0.029533803
0.13341052
-0.031460568
0.13390852
-0.033375364
0.13460876
-0.035275662
0.13550452
-0.037155555
0.13659007
-0.039004897
0.1378606
-0.04080858
0.13931202
-0.042546086
0.14094068
-0.044191435
0.14274289
-0.045713599
0.1447144
-0.04707745
0.14684988
-0.048245188
0.14914235
-0.049178161
0.15158288
-0.049838878
0.15416036
-0.050192961
0.15686181
-0.050210608
0.15967325
-0.049866781
0.16258116
-0.049138892
0.16557408
-0.048000948
0.16864316
-0.046415292
0.17178016
-0.044327641
0.17497239
-0.04167531
0.17819653
-0.038416379
0.18141496
-0.034575021
0.18457833
-0.030280726
0.18763476
-0.025771812
0.19054197
-0.021348931
0.19327673
-0.017295504
0.1958379
-0.013805632
0.19824276
-0.010952819
0.2005203
-0.0087089656
0.20270309
-0.0069803856
0.2048247
-0.0056715856
0.20690882
-0.004648038
0.20899398
-0.0039603603
-0.0030267154
0.19675844
0.0017222055
-0.20096225
0.19333856
-0.00047227398
0.19034892
-0.002578715
0.18762706
-0.0047447036
0.18513522
-0.0069899421
0.18284923
-0.0092404917
0.18075271
-0.01147961
0.1788379
-0.013709664
0.17710171
-0.01592732
0.17554252
-0.018127312
0.17415881
-0.020306841
0.17294848
-0.022465301
0.17190851
-0.024603162
0.17103478
-0.026721417
0.17032211
-0.028821132
0.16976433
-0.03090279
0.16935443
-0.032965467
0.16908473
-0.03500596
0.16894708
-0.037017902
0.16893309
-0.03899091
0.16903438
-0.040909871
0.16924277
-0.04275448
0.16955048
-0.044499142
0.16995021
-0.046113324
0.17043518
-0.04756242
0.17099908
-0.048809092
0.17163592
-0.049815002
0.17233981
-0.050542768
0.17310479
-0.050957936
0.17392475
-0.051030567
0.17479369
-0.050735725
0.17570636
-0.050051559
0.1766591
-0.048953689
0.17765044
-0.047406635
0.17868052
-0.045357716
0.17974883
-0.042743627
0.18085081
-0.039518356
0.18197447
-0.035698682
0.1830991
-0.03140535
0.18419692
-0.026869641
0.18523765
-0.022389654
0.18619413
-0.018251984
0.1870474
-0.0146589
0.18778912
-0.011694544
0.18842162
-0.0093414655
0.18895407
-0.007512833
0.18940237
-0.0061198864
0.18977539
-0.0050210622
0.19010604
-0.0042910077
-0.0032734717
0.22424032
0.0047512809
-0.2272694
0.22115701
0.0026110427
0.21834132
0.00023697016
0.2156514
-0.0020547816
0.21304036
-0.0043789021
0.21053809
-0.0067382235
0.208162
-0.0091035205
0.20591764
-0.011465297
0.20381138
-0.013821068
0.20185024
-0.016166171
0.20003936
-0.018495962
0.19838176
-0.020807698
0.19687862
-0.023100016
0.19552935
-0.025372149
0.19433168
-0.027623462
0.19328178
-0.029852889
0.1923745
-0.032058191
0.19160364
-0.034235104
0.19096223
-0.036376488
0.19044283
-0.038471503
0.19003786
-0.040504903
0.18973994
-0.042456558
0.1895421
-0.044301311
0.18943804
-0.04600926
0.18942214
-0.047546524
0.18948952
-0.048876465
0.18963582
-0.049961308
0.18985707
-0.050764013
0.19014935
-0.051250218
0.19050873
-0.05138995
0.19093143
-0.051158418
0.19141444
-0.050534569
0.19195663
-0.049495877
0.19255964
-0.04800965
0.19322782
-0.046025895
0.19396624
-0.043482049
0.19477696
-0.04032907
0.19565457
-0.036576298
0.19658315
-0.032333932
0.19753614
-0.027822631
0.1984799
-0.023333405
0.19937984
-0.019151924
0.20020714
-0.015486204
0.20094342
-0.012430824
0.2015824
-0.0099804459
0.20212728
-0.0080577145
0.20258972
-0.0065823235
0.20297775
-0.0054090927
0.20332065
-0.0046339058
-0.003532703
0.25042173
0.0071488593
-0.25281931
0.24791836
0.0051144117
0.24542071
0.0027346155
0.24294715
0.00041877673
0.24046377
-0.001895519
0.23798976
-0.0042642133
0.23555561
-0.006669374
0.23318088
-0.0090905607
0.23088128
-0.011521469
0.22867212
-0.01395701
0.22656646
-0.0163903
0.22457426
-0.018815505
0.22270275
-0.021228503
0.22095665
-0.02362605
0.21933833
-0.026005146
0.21784801
-0.028362561
0.21648399
-0.030694171
0.21524304
-0.032994162
0.21412076
-0.035254205
0.21311192
-0.037462665
0.21221093
-0.039603911
0.2114122
-0.041657827
0.21071051
-0.043599622
0.21010129
-0.045400036
0.20958075
-0.04702599
0.20914596
-0.048441676
0.20879469
-0.049610035
0.20852518
-0.050494504
0.20833589
-0.051060923
0.20822525
-0.051279315
0.20819183
-0.051124993
0.2082349
-0.050577641
0.20835567
-0.049616652
0.20855856
-0.04821254
0.20885162
-0.04631895
0.20924504
-0.043875469
0.20974735
-0.040831386
0.21036012
-0.037189065
0.21107308
-0.033046898
0.21186216
-0.028611706
0.21269166
-0.024162908
0.21352057
-0.019980831
0.21431064
-0.01627628
0.21503334
-0.013153524
0.21567329
-0.01062039
0.2162271
-0.0086115278
0.21670135
-0.0070565766
0.21710334
-0.0058110811
0.21745658
-0.0049871458
-0.0038046101
0.27502645
0.008923873
-0.27680146
0.27313395
0.0070069045
0.27108021
0.0047883618
0.26894428
0.0025547021
0.26673821
0.00031055226
0.26447131
-0.0019973152
0.26216852
-0.0043665806
0.25985368
-0.0067757172
0.25754651
-0.0092142995
0.2552659
-0.011676398
0.25302968
-0.014154082
0.2508533
-0.016639124
0.24874947
-0.019124675
0.24672829
-0.021604866
0.24479726
-0.024074119
0.24296142
-0.02652672
0.24122354
-0.028956291
0.23958446
-0.031355083
0.23804346
-0.033713208
0.2365987
-0.0360179
0.23524764
-0.038252853
0.23398754
-0.04039773
0.23281586
-0.04242794
0.23173059
-0.044314762
0.23073048
-0.046025881
0.22981513
-0.047526327
0.22898489
-0.048779798
0.22824065
-0.049750268
0.22758353
-0.050403803
0.22701462
-0.050710403
0.22653501
-0.050645385
0.22614638
-0.050189003
0.22585218
-0.049322459
0.22565928
-0.048019642
0.22557886
-0.046238527
0.22562552
-0.04392213
0.22581372
-0.041019585
0.22615187
-0.037527211
0.226636
-0.033531033
0.2272458
-0.0292215
0.22794521
-0.024862321
0.22868839
-0.020724012
0.22942885
-0.017016742
0.2301284
-0.013853067
0.23076243
-0.011254423
0.23132051
-0.0091696026
0.23180353
-0.0075396049
0.23221741
-0.0062249579
0.23257966
-0.0053493933
-0.0040883219
0.29780331
0.010082272
-0.29896171
0.29650801
0.0083022093
0.29498379
0.0063125842
0.29329634
0.0042421521
0.29148292
0.0021239675
0.28955487
-6.9265436e-05
0.2875294
-0.0023411096
0.28542905
-0.0046753658
0.28327446
-0.0070597133
0.28108489
-0.0094868203
0.27887927
-0.011948469
0.27667549
-0.014435342
0.27448951
-0.0169387
0.27233519
-0.019450543
0.27022414
-0.021963067
0.26816569
-0.02446827
0.26616695
-0.026957557
0.26423305
-0.029421173
0.26236737
-0.031847537
0.26057204
-0.034222568
0.25884828
-0.036529088
0.25719689
-0.038746343
0.25561872
-0.040849768
0.25411499
-0.042811037
0.25268761
-0.044598493
0.25133922
-0.04617794
0.25007322
-0.0475138
0.24889352
-0.048570564
0.24780422
-0.049314507
0.24680937
-0.04971555
0.24591286
-0.049748873
0.24511892
-0.049395066
0.24443332
-0.048636862
0.24386509
-0.047451414
0.24342795
-0.045801383
0.24314005
-0.043634228
0.24302088
-0.040900419
0.24308521
-0.037591539
0.24333559
-0.033781412
0.24375653
-0.029642442
0.24431342
-0.025419213
0.24495761
-0.021368203
0.24563613
-0.017695263
0.24630224
-0.014519169
0.24692251
-0.011874697
0.24747921
-0.0097263073
0.24796719
-0.0080275783
0.24839022
-0.0066479872
0.24875974
-0.0057189158
-0.004382546
0.3190505
0.010691968
-0.3196602
0.31828727
0.0090654417
0.31728765