/*--------------------------------*- C++ -*----------------------------------*\
  =========                 |
  \\      /  F ield         | OpenFOAM: The Open Source CFD Toolbox
   \\    /   O peration     | Website:  https://openfoam.org
    \\  /    A nd           | Version:  6
     \\/     M anipulation  |
\*---------------------------------------------------------------------------*/
FoamFile
{
    version     2.0;
    format      ascii;
    class       volVectorField;
    location    "18";
    object      U;
}
// * * * * * * * * * * * * * * * * * * * * * * * * * * * * * * * * * * * * * //

dimensions      [0 1 -1 0 0 0 0];

internalField   nonuniform List<vector> 
9200
(
(0.001340899 0.0012722349 -6.1691141e-20)
(0.015018527 -0.0027331707 4.8315931e-20)
(0.04126626 -0.0070586941 -4.0310836e-20)
(0.077295767 -0.011489628 -6.2891615e-20)
(0.12123277 -0.015778254 1.9826805e-20)
(0.17181564 -0.019478686 3.4301967e-20)
(0.22793187 -0.022295551 -1.2982393e-20)
(0.288543 -0.024080024 9.8307191e-21)
(0.35266498 -0.024772572 1.7424208e-20)
(0.41933555 -0.024379573 1.551166e-21)
(0.48759095 -0.022961621 -2.2514569e-20)
(0.55645862 -0.020622082 2.1789864e-20)
(0.62496311 -0.017495594 -4.2561818e-20)
(0.69214303 -0.01373635 -2.2427726e-20)
(0.75707717 -0.0095055985 6.2522689e-21)
(0.8189165 -0.0049610474 -2.6930009e-20)
(0.87693361 -0.00023406986 2.7275766e-20)
(0.93064662 0.0047127656 2.5036566e-20)
(0.97965859 0.010019475 2.3905788e-22)
(1.021369 0.012483427 -9.6435107e-22)
(0.0057798936 -0.0016247276 -1.777024e-20)
(0.028977622 -0.0099879829 4.1552188e-20)
(0.065745909 -0.016438358 2.4678958e-20)
(0.11288091 -0.02139079 -1.2034653e-19)
(0.16818649 -0.025010465 -1.3345471e-20)
(0.23012509 -0.027087964 7.6093789e-20)
(0.29729581 -0.027532857 -3.699814e-20)
(0.36835578 -0.026387636 -8.7284757e-21)
(0.44200858 -0.02376815 3.5816518e-20)
(0.51698212 -0.019844226 -4.5350629e-20)
(0.59202057 -0.014831218 -3.1983464e-20)
(0.66589607 -0.0089787487 7.6311119e-20)
(0.7374349 -0.0025578737 4.0647575e-20)
(0.80555299 0.0041517095 -7.2770399e-20)
(0.86929578 0.010872809 1.5834751e-20)
(0.92787607 0.017336608 -3.9783809e-20)
(0.98071675 0.023296436 -1.4713086e-20)
(1.0275467 0.028598223 7.8390474e-20)
(1.0682809 0.032862943 3.4229993e-20)
(1.1012755 0.033127762 -8.8116533e-20)
(0.011656237 -0.0044319237 3.8154349e-20)
(0.04674772 -0.016689631 2.6028482e-21)
(0.0958525 -0.024506403 2.3417834e-20)
(0.15540195 -0.029051531 1.0175583e-21)
(0.22288397 -0.03099095 -4.2769709e-20)
(0.29645489 -0.030418027 1.9152502e-20)
(0.37438631 -0.027510024 1.4083871e-20)
(0.45499617 -0.022560998 -5.2513896e-20)
(0.5366567 -0.015917402 5.9933432e-20)
(0.61779491 -0.0079598716 1.5113654e-20)
(0.69690954 0.0009055939 -5.7551267e-20)
(0.77260719 0.010262742 -1.9620037e-20)
(0.8436482 0.019703157 8.88984e-21)
(0.90899338 0.028843961 2.5303432e-20)
(0.96784389 0.037342884 -1.2483238e-20)
(1.0196666 0.044907938 3.0247306e-20)
(1.0642055 0.051310854 -2.1801286e-20)
(1.1015059 0.056432039 -7.6990261e-20)
(1.1317918 0.060040404 -2.6354306e-20)
(1.1543616 0.060384044 5.2027074e-20)
(0.019065851 -0.0068946257 2.5353881e-20)
(0.06844025 -0.022125656 5.2933687e-20)
(0.13155359 -0.030198025 2.0580532e-20)
(0.20454562 -0.033162473 1.3269056e-20)
(0.2846033 -0.032275641 1.7788642e-20)
(0.3695567 -0.028005661 -4.9508451e-20)
(0.45733215 -0.020864139 -2.6696706e-20)
(0.54591083 -0.011455877 0)
(0.63336945 -0.00040493396 1.5028755e-20)
(0.71791352 0.011666965 -6.6068935e-21)
(0.7979236 0.024153717 -1.0377735e-19)
(0.87201237 0.036486523 -1.6433674e-20)
(0.93907915 0.04815767 7.0237974e-20)
(0.99835069 0.058741026 -9.5483869e-23)
(1.0494008 0.067906482 -1.7040732e-21)
(1.0921442 0.075426254 2.3857638e-20)
(1.1268069 0.081179702 -5.8491659e-21)
(1.153892 0.085178852 -6.6513728e-20)
(1.1740567 0.08743541 -5.0417807e-20)
(1.1874045 0.087077944 7.4408019e-20)
(0.028032557 -0.0087244761 -4.0072149e-21)
(0.093939094 -0.025529021 -5.3049057e-21)
(0.17242516 -0.032417619 5.8477046e-20)
(0.25944601 -0.032437569 1.9079282e-20)
(0.35192609 -0.02752155 -3.3031778e-20)
(0.44737826 -0.018584689 1.2620352e-20)
(0.54341028 -0.006534734 2.7557815e-21)
(0.63773032 0.0076673437 3.539e-20)
(0.72822993 0.023096857 5.9752226e-21)
(0.81305264 0.038894658 -1.4299735e-20)
(0.89066256 0.054286694 6.4867819e-20)
(0.95990637 0.068610578 -6.1580289e-20)
(1.0200538 0.081339628 -1.4193499e-19)
(1.0708077 0.092097597 -6.0144838e-21)
(1.1122801 0.10066188 9.0075375e-20)
(1.1449387 0.10695481 0)
(1.1695297 0.1110295 1.0913355e-20)
(1.1869978 0.11306934 -1.6776304e-20)
(1.1983637 0.11328841 -9.4343839e-21)
(1.2042827 0.11134036 2.2547543e-20)
(0.038487301 -0.0096102464 -5.45764e-21)
(0.12286953 -0.026122036 4.4909047e-21)
(0.21764395 -0.030125105 -9.028458e-21)
(0.31872907 -0.025747979 2.9388924e-20)
(0.4228637 -0.015667203 -3.0479584e-20)
(0.52730155 -0.0013047361 -1.7621523e-20)
(0.62942257 0.015994517 3.8614083e-20)
(0.72680054 0.03490024 4.8348841e-21)
(0.81732851 0.054206528 -2.6377517e-20)
(0.8993129 0.072869528 7.4154316e-20)
(0.97154457 0.090029398 1.0979848e-23)
(1.0333391 0.10503319 -8.6585283e-20)
(1.0845354 0.11744714 0)
(1.1254513 0.12705233 4.2836476e-20)
(1.1568026 0.13382422 6.0046532e-21)
(1.1795971 0.13789925 -8.3661668e-20)
(1.1950197 0.13953681 -2.1133046e-20)
(1.2043265 0.13909382 -1.3434092e-20)
(1.2087335 0.13693633 -1.5921843e-20)
(1.2091481 0.13302535 4.3594245e-20)
(0.050255144 -0.0092395586 -1.7649627e-20)
(0.15458328 -0.023177281 -2.540391e-21)
(0.26599999 -0.022428199 3.1167607e-20)
(0.38057829 -0.012235338 3.8443565e-20)
(0.49499757 0.0039486049 -2.0625903e-20)
(0.60637289 0.024165771 -7.2172145e-20)
(0.71201909 0.046633619 -2.9576967e-20)
(0.80958502 0.069689949 8.3084617e-20)
(0.89720861 0.091922713 9.4630434e-21)
(0.97361354 0.11220984 -2.6161922e-20)
(1.0381532 0.12973202 1.4084097e-20)
(1.0907998 0.14397663 -4.7901871e-21)
(1.1320779 0.15472227 0)
(1.1629544 0.16200176 2.914372e-20)
(1.1847013 0.16604924 -8.5063101e-20)
(1.1987526 0.16723905 -3.3780982e-20)
(1.2065723 0.16602708 8.6976462e-20)
(1.2095514 0.16290928 -4.8377012e-21)
(1.2089253 0.158343 3.750643e-21)
(1.2056277 0.15245812 2.9397138e-20)
(0.063049689 -0.0073276221 -3.306919e-20)
(0.18816631 -0.016091408 -8.3932098e-20)
(0.31594552 -0.0086819941 2.2664428e-21)
(0.44284402 0.0085837644 7.2580417e-20)
(0.56566045 0.031500371 6.4778673e-20)
(0.68155671 0.05759513 -7.4141779e-20)
(0.78800959 0.084704924 1.5703892e-22)
(0.88300144 0.11093452 9.0574879e-20)
(0.96517873 0.13479767 5.160108e-20)
(1.0339194 0.15524455 -5.7740224e-20)
(1.0893189 0.17164711 -9.8289864e-20)
(1.1321057 0.18376542 -3.3664311e-21)
(1.1635014 0.19168968 4.4927153e-20)
(1.1850501 0.19576224 -7.0401323e-21)
(1.198445 0.19649159 -1.36509e-20)
(1.2053731 0.19446942 2.0816197e-20)
(1.2073964 0.19030212 4.6859741e-20)
(1.2058758 0.1845664 -4.6686809e-20)
(1.2019326 0.17774841 -1.095259e-19)
(1.1963914 0.17005953 2.667534e-20)
(0.076443656 -0.0036486565 -3.6029038e-20)
(0.2224015 -0.0044623461 -1.7743879e-19)
(0.36557301 0.011427946 8.5139315e-20)
(0.50305097 0.03675806 9.6086392e-20)
(0.63198146 0.066661131 6.0081668e-20)
(0.74981588 0.098234123 9.0218486e-21)
(0.8544615 0.12905639 -1.1123778e-19)
(0.94450387 0.15715919 0)
(1.0193347 0.18115952 -7.316474e-20)
(1.0791584 0.20025337 -1.6264174e-20)
(1.1248992 0.21415269 5.8072545e-20)
(1.1580357 0.22299783 1.1662042e-20)
(1.180397 0.2272488 -4.8427192e-20)
(1.1939553 0.22756766 -5.2026489e-20)
(1.2006446 0.22470799 2.5950666e-20)
(1.2022247 0.21942387 4.7877249e-20)
(1.2001984 0.21240598 -5.9301278e-20)
(1.1957793 0.20424751 -1.1442269e-19)
(1.1899006 0.19541065 -3.0744022e-21)
(1.1832195 0.18613795 2.8753534e-20)
(0.089853299 0.0019488434 -3.9088172e-21)
(0.25577625 0.011897497 9.035275e-20)
(0.41265767 0.037892107 -1.5347955e-20)
(0.55849097 0.071929856 -8.8039745e-20)
(0.69102969 0.10865315 4.7094483e-20)
(0.80828513 0.14488962 5.0819752e-20)
(0.90886422 0.17815516 5.827844e-21)
(0.99218962 0.20662067 -1.0473527e-19)
(1.0585641 0.229211 -2.6479333e-21)
(1.1090947 0.2455396 5.349884e-20)
(1.145515 0.25577918 6.3349196e-21)
(1.1699512 0.26051247 -2.0988407e-20)
(1.1846803 0.26057592 -8.0181965e-20)
(1.191917 0.25691429 -6.5013704e-21)
(1.1936568 0.25046251 4.6024383e-20)
(1.1915822 0.24206362 3.9117302e-20)
(1.1870301 0.23242344 2.0713306e-20)
(1.1810066 0.22209603 -5.6822234e-20)
(1.1742364 0.21148378 1.2925173e-20)
(1.1672019 0.2008357 8.7288816e-20)
(-0.0013726868 0.0015229158 -1.1538123e-21)
(-0.0050312071 0.0033752595 2.1738253e-21)
(-0.011401668 0.0043728083 1.0176986e-21)
(-0.018773646 0.004793612 -2.4713503e-21)
(-0.026138802 0.0048156042 -1.5797577e-21)
(-0.033044369 0.0045579765 1.7162547e-21)
(-0.039205329 0.004107326 -7.4434694e-21)
(-0.044433825 0.0035263564 -6.4460502e-21)
(-0.048623384 0.0028596394 1.2104137e-20)
(-0.051723606 0.0021384911 -1.0573365e-20)
(-0.053719149 0.0013845983 -1.9763347e-22)
(-0.054616228 0.00061265059 4.0275094e-21)
(-0.054433775 -0.00016767195 -6.769741e-22)
(-0.053197369 -0.00095011904 2.5062464e-20)
(-0.050935389 -0.0017304216 2.9860147e-22)
(-0.047678499 -0.0025047203 -4.5297012e-20)
(-0.043462345 -0.0032689194 8.4589072e-21)
(-0.038318466 -0.0040216812 2.6637478e-20)
(-0.032243679 -0.0047623299 -4.9230272e-20)
(-0.025289471 -0.0054384679 -3.1278921e-20)
(-0.0017493902 0.0044337885 -5.7526e-21)
(-0.0057053188 0.0098052311 1.1401222e-20)
(-0.011838331 0.012683486 -1.0840587e-20)
(-0.018609335 0.013876396 4.3181468e-21)
(-0.025111561 0.013903191 5.2667161e-21)
(-0.030943976 0.0131135 7.7368382e-22)
(-0.035856866 0.011761508 -2.4323952e-20)
(-0.039687452 0.01003118 -2.2031779e-21)
(-0.042345605 0.0080532478 2.1807767e-20)
(-0.0437908 0.0059195215 -5.464225e-21)
(-0.044012985 0.003693524 -2.3651807e-20)
(-0.043020372 0.0014182033 5.3301626e-21)
(-0.040831488 -0.00087824951 2.4586534e-20)
(-0.037469571 -0.0031777675 1.1295689e-20)
(-0.032958502 -0.0054681964 2.4143232e-20)
(-0.027323454 -0.0077388312 -2.1834624e-20)
(-0.020601486 -0.0099784228 -2.3982027e-20)
(-0.012832686 -0.012182417 2.3776971e-20)
(-0.0039316133 -0.014337474 2.9960646e-20)
(0.0063329787 -0.016263778 1.7582769e-20)
(-0.0024305588 0.006943887 -4.6569998e-21)
(-0.006881032 0.015291003 -5.866772e-21)
(-0.012479613 0.019727188 3.006976e-22)
(-0.018018032 0.021507547 1.054455e-21)
(-0.022784549 0.021445694 7.1643615e-21)
(-0.026477663 0.02009584 1.1423935e-20)
(-0.028916312 0.017861843 -3.9994523e-21)
(-0.029986729 0.015036125 -2.03524e-20)
(-0.029631086 0.011826749 7.0537858e-21)
(-0.027828945 0.0083800008 1.3865208e-20)
(-0.024581894 0.0047971466 6.4372799e-21)
(-0.019903887 0.0011465828 1.9563162e-20)
(-0.013815057 -0.0025270409 1.8807198e-21)
(-0.0063372132 -0.0061956875 -3.6802456e-20)
(0.0025102407 -0.009840919 1.4704263e-21)
(0.012708201 -0.013447105 -2.3979863e-20)
(0.024214164 -0.017000025 -2.7215153e-20)
(0.036965493 -0.020494332 5.1019012e-20)
(0.051180836 -0.023875908 2.8513229e-20)
(0.067633283 -0.02675462 4.3777072e-22)
(-0.0032889041 0.0088335416 -5.6581287e-21)
(-0.0082653802 0.019309054 -9.3501905e-21)
(-0.01295551 0.024797822 4.6140698e-21)
(-0.016602905 0.026877796 4.4284665e-21)
(-0.018764876 0.026584983 2.1364491e-21)
(-0.019279306 0.024637917 7.8292042e-21)
(-0.018062944 0.021561972 9.9457463e-21)
(-0.015073173 0.017737814 -1.4264077e-21)
(-0.010300556 0.013436869 -1.2263492e-20)
(-0.0037566255 0.0088503942 -3.1224633e-20)
(0.0045360308 0.004111003 1.3385384e-22)
(0.014549682 -0.00069178097 4.382223e-20)
(0.026255274 -0.0054999453 -1.9681059e-20)
(0.039624222 -0.010277378 -1.3313339e-20)
(0.054632668 -0.015001683 4.0374851e-22)
(0.071259643 -0.019656314 3.5305922e-20)
(0.089448519 -0.02423163 -1.6606828e-20)
(0.10909229 -0.028731807 -5.8478136e-20)
(0.13053985 -0.033036707 5.0294816e-20)
(0.15532257 -0.036420929 3.6369967e-20)
(-0.0041546443 0.009954264 -6.7112361e-22)
(-0.0094584157 0.021491737 -1.3291439e-20)
(-0.01274945 0.02738878 -3.6446183e-20)
(-0.013797599 0.029400311 -6.1563098e-21)
(-0.012479031 0.028697962 -3.8115041e-21)
(-0.0088006643 0.026114861 6.7043067e-21)
(-0.0028007619 0.022262696 -4.9115076e-21)
(0.0054723938 0.017584624 -9.2802782e-21)
(0.015963473 0.012397317 2.3250885e-20)
(0.028614534 0.0069243441 5.278153e-21)
(0.043369119 0.0013211869 -2.7257775e-20)
(0.060172146 -0.0043068007 1.1755482e-20)
(0.078970249 -0.009891263 0)
(0.099711823 -0.015390761 1.299182e-20)
(0.12234985 -0.020781799 -1.0455037e-20)
(0.14684095 -0.026051219 -1.5610782e-20)
(0.17309615 -0.031203594 -1.1791247e-21)
(0.20093573 -0.036274105 -2.6209537e-21)
(0.23078213 -0.041078222 4.97455e-20)
(0.26505692 -0.04441522 -1.2138589e-20)
(-0.0048345181 0.010238069 -7.9352143e-21)
(-0.0099891113 0.021653589 2.6064548e-20)
(-0.011232572 0.027234618 -1.1210221e-20)
(-0.0088906039 0.028765924 -2.9122571e-20)
(-0.0031839669 0.027463655 -2.913806e-20)
(0.0056920457 0.024221954 -1.5800253e-20)
(0.017559761 0.019699154 -6.9457072e-22)
(0.032262417 0.014371152 5.8004592e-21)
(0.049663914 0.0085788853 2.0619597e-20)
(0.069643126 0.0025640133 7.7807248e-21)
(0.092089229 -0.0035051073 -7.5701942e-21)
(0.11689853 -0.0095141635 -1.9844996e-21)
(0.14396999 -0.015389198 -4.0697281e-20)
(0.17320182 -0.021086555 -1.3544237e-20)
(0.2044923 -0.026584419 2.0359976e-20)
(0.2377407 -0.031876906 -2.2774168e-20)
(0.27279482 -0.036991471 -9.668328e-21)
(0.3093703 -0.042021931 3.2401709e-20)
(0.34787228 -0.046760457 5.4205526e-20)
(0.39162838 -0.049431267 3.6634012e-21)
(-0.005128397 0.009693123 1.7591935e-20)
(-0.009349591 0.019792442 1.5176564e-20)
(-0.0077006572 0.024325452 5.3997046e-20)
(-0.0010581613 0.024972797 2.4754116e-20)
(0.010006754 0.022907405 1.9296874e-22)
(0.025099931 0.019030498 -4.1523554e-20)
(0.04389118 0.014006479 -2.5700001e-20)
(0.066101128 0.0083139115 1.0960214e-20)
(0.091491522 0.0022949117 1.5147584e-20)
(0.11985401 -0.0038078665 -1.3647461e-20)
(0.15099793 -0.0098256753 -4.6563932e-20)
(0.18474034 -0.015644865 3.1376509e-20)
(0.22089744 -0.021193315 2.1034948e-20)
(0.25927764 -0.026431121 -2.9231347e-20)
(0.29968014 -0.031343543 1.2489917e-20)
(0.34189815 -0.03593758 2.576344e-20)
(0.38567239 -0.040271268 8.7275481e-21)
(0.43058132 -0.04452457 -1.2913333e-20)
(0.47691395 -0.048547265 -1.4839905e-20)
(0.52878815 -0.049990993 7.3485209e-21)
(-0.0048403647 0.0083903921 1.1676043e-20)
(-0.0070227163 0.016069711 -2.4814005e-20)
(-0.0014107309 0.018893712 8.924896e-21)
(0.010594197 0.018323687 3.54487e-20)
(0.028077757 0.015408434 5.493032e-20)
(0.050443226 0.01100598 2.1333572e-20)
(0.077196332 0.0057479777 -6.229075e-21)
(0.10791357 8.3143609e-05 -1.2804243e-20)
(0.14223088 -0.0056694152 -6.6246459e-21)
(0.17982221 -0.011285485 3.5995069e-20)
(0.22037959 -0.016612085 -4.9681844e-21)
(0.26359771 -0.021549964 -1.7662797e-20)
(0.30916157 -0.026041146 -2.0622886e-20)
(0.35673739 -0.030060987 -5.0185151e-20)
(0.40597035 -0.033613059 2.4552009e-20)
(0.45649223 -0.036728528 -1.4987459e-20)
(0.50789072 -0.039508156 2.7900462e-20)
(0.55959079 -0.042248605 2.2577765e-20)
(0.61170088 -0.044975978 -9.0244987e-20)
(0.66890137 -0.044953459 2.374931e-22)
(-0.0037854139 0.0064481033 2.2944628e-20)
(-0.0025078884 0.01078492 -2.7640547e-20)
(0.008371686 0.011393211 -4.7293312e-20)
(0.026960606 0.0094151969 -2.8665362e-20)
(0.05201624 0.0057035963 -2.1441163e-21)
(0.082732238 0.0010249429 1.3532495e-20)
(0.11843431 -0.0040605347 -2.8478349e-21)
(0.15853197 -0.0091657273 1.890847e-20)
(0.20250186 -0.014021979 9.1738254e-21)
(0.24985856 -0.018447134 -1.1885257e-20)
(0.3001282 -0.022325232 9.5642982e-21)
(0.3528292 -0.02559119 -2.5082429e-20)
(0.40745844 -0.028219695 8.760914e-21)
(0.4634823 -0.030218094 1.7727426e-20)
(0.52033561 -0.0316219 -2.8594103e-21)
(0.57743255 -0.032495772 1.7767305e-21)
(0.63415434 -0.032985431 -3.0089677e-22)
(0.68975616 -0.033486472 2.0976508e-20)
(0.74414919 -0.034213548 4.2747275e-21)
(0.80232589 -0.032541892 -2.2533899e-21)
(-0.0017896765 0.004019466 2.4891742e-20)
(0.0046590957 0.0043592033 6.0214857e-20)
(0.022317026 0.0024946002 -5.1648309e-20)
(0.04883437 -0.00084498638 -1.0422768e-20)
(0.082651649 -0.0050760144 2.1107393e-20)
(0.12274631 -0.0095701094 2.2360984e-21)
(0.16824391 -0.013878834 -3.1067044e-20)
(0.2183547 -0.017713743 7.1785475e-21)
(0.27235346 -0.020890488 7.5751797e-21)
(0.32954558 -0.023300901 -2.7530143e-20)
(0.38923832 -0.024896955 1.4036526e-21)
(0.45072296 -0.02567765 -3.9063719e-20)
(0.51326562 -0.025678222 -3.8400946e-20)
(0.57610531 -0.024961353 6.9688679e-20)
(0.63845914 -0.023609309 5.9373762e-21)
(0.69953268 -0.021721951 -1.6446137e-20)
(0.75851038 -0.01945498 2.0655046e-20)
(0.81448746 -0.017106066 -9.8169214e-22)
(0.86692376 -0.014704591 2.0984559e-20)
(0.91942055 -0.010726524 -2.1977691e-20)
(-0.016968621 -0.0057903234 6.6312346e-20)
(-0.0071073113 -0.0064431645 1.7822127e-20)
(0.0044207424 -0.0069976828 -4.0176399e-20)
(0.017258443 -0.0073760855 1.9668133e-20)
(0.031143826 -0.0076697457 0)
(0.046046233 -0.0079098598 0)
(0.061940875 -0.008098731 -2.7395352e-20)
(0.078782557 -0.0082444328 -1.9785528e-20)
(0.096538873 -0.0083572844 2.3644197e-20)
(0.11519371 -0.0084447439 2.2628667e-20)
(0.13474017 -0.0085123147 1.2241168e-21)
(0.1551787 -0.0085646347 -1.293989e-20)
(0.17651717 -0.0086054233 1.1323741e-20)
(0.19876983 -0.0086373372 2.3558184e-20)
(0.22195544 -0.0086620032 -7.7449483e-21)
(0.24609517 -0.0086800534 -1.3455022e-20)
(0.27121026 -0.0086911343 -5.7659853e-21)
(0.29731899 -0.0086939351 -5.5571421e-21)
(0.32443339 -0.008686257 8.4259732e-22)
(0.35255549 -0.0086651267 1.8197769e-21)
(0.3816735 -0.0086269596 4.3111298e-21)
(0.41175797 -0.0085677746 9.7665037e-21)
(0.44275829 -0.0084834526 -5.6736026e-22)
(0.47459981 -0.0083700253 -5.1044999e-21)
(0.50718182 -0.0082239676 5.4287467e-25)
(0.5403766 -0.0080424653 -7.9940137e-22)
(0.57402975 -0.0078236157 1.6216655e-21)
(0.6079615 -0.00756652 8.5602893e-22)
(0.64196883 -0.007271217 -2.1221509e-21)
(0.67582747 -0.0069384203 8.7168558e-23)
(0.70929283 -0.0065690582 -9.7682739e-22)
(0.74209834 -0.006163712 -1.663674e-22)
(0.77395073 -0.0057222151 -5.1389457e-22)
(0.80452304 -0.0052438543 4.9810747e-22)
(0.83345018 -0.0047286331 4.8595923e-23)
(0.86033518 -0.0041797188 2.3538482e-22)
(0.8847758 -0.003606399 -3.3586305e-22)
(0.90641596 -0.0030260061 -4.8478505e-22)
(0.92501406 -0.0024630267 -2.1346964e-22)
(0.94050586 -0.0019446686 4.6064061e-23)
(0.95303305 -0.0014941877 -1.2977651e-22)
(0.96292037 -0.0011249568 1.3675617e-22)
(0.97060557 -0.00083813175 -1.7073211e-22)
(0.97655633 -0.00062465452 -2.2649318e-22)
(0.98118798 -0.00047007045 4.8316645e-23)
(0.98486105 -0.00035909692 7.8949509e-23)
(0.987769 -0.00027932936 1.83334e-23)
(0.99027769 -0.00022017313 7.7637966e-24)
(0.9919709 -0.00017946241 -1.1459482e-24)
(0.99447079 -0.00013255172 2.7059923e-23)
(0.016222216 -0.017180718 -1.4801149e-20)
(0.025307656 -0.019144764 -7.1813577e-20)
(0.036572108 -0.020770805 -3.5459412e-20)
(0.049112241 -0.02185621 4.4694943e-20)
(0.06253377 -0.022703773 1.7197827e-20)
(0.076890636 -0.023405259 -2.1962572e-20)
(0.092190515 -0.023959018 6.2013749e-21)
(0.10838839 -0.024386952 3.049815e-20)
(0.1254567 -0.024719883 -5.3744536e-22)
(0.14338654 -0.024979319 -9.7736294e-21)
(0.16217543 -0.025180767 -1.5166869e-20)
(0.18182617 -0.025337509 -1.1512705e-20)
(0.20234798 -0.025460302 2.2709211e-20)
(0.22375562 -0.025556827 1.4157422e-20)
(0.24606761 -0.025631786 -2.0405268e-20)
(0.2693044 -0.025687009 -8.0650915e-21)
(0.29348621 -0.025721466 3.9222111e-21)
(0.31863035 -0.025731332 1.0743498e-20)
(0.34474812 -0.025710175 1.0239402e-20)
(0.37184132 -0.025649281 -1.1683906e-20)
(0.39989866 -0.025538124 -6.814574e-21)
(0.42889212 -0.025364993 4.0594353e-21)
(0.45877364 -0.025117748 3.1761577e-21)
(0.48947232 -0.024784668 2.462904e-21)
(0.52089245 -0.024355319 8.9114432e-22)
(0.55291262 -0.023821343 -1.0938756e-21)
(0.58538586 -0.023177064 -1.5689489e-21)
(0.61814094 -0.02241977 2.8669501e-21)
(0.65098433 -0.021549534 1.9473123e-21)
(0.68370217 -0.020568451 -1.7473673e-21)
(0.7160612 -0.019479279 1.3618841e-21)
(0.74780731 -0.018283755 -1.168785e-22)
(0.77866084 -0.016981353 -9.4362287e-22)
(0.80830955 -0.015569796 -6.8211559e-22)
(0.83640345 -0.014048726 -1.4538756e-22)
(0.86255954 -0.012426946 -1.0970217e-21)
(0.88638623 -0.010731293 6.3705787e-22)
(0.90753225 -0.0090125451 -1.2392482e-22)
(0.92575313 -0.0073430183 4.7946157e-22)
(0.94097364 -0.0058035493 -1.0142016e-22)
(0.953318 -0.0044636741 4.0362695e-22)
(0.96309008 -0.0033638422 6.9992365e-23)
(0.97070701 -0.0025082505 6.0781822e-23)
(0.97661917 -0.0018705987 5.9321798e-23)
(0.98122932 -0.0014083166 9.8610395e-23)
(0.98488999 -0.0010761385 8.8161998e-23)
(0.98779029 -0.00083722891 -2.4350849e-23)
(0.99029369 -0.00065996483 -4.0837205e-23)
(0.99198358 -0.00053802828 5.1332473e-23)
(0.99447975 -0.00039737636 1.0362755e-22)
(0.080357219 -0.027890736 1.0839059e-20)
(0.087865807 -0.03113641 4.1498717e-21)
(0.098434238 -0.033745244 -1.5077532e-20)
(0.11028411 -0.035424052 -1.9101289e-21)
(0.1227032 -0.036750472 1.8009414e-20)
(0.13590708 -0.037873873 -1.7564317e-20)
(0.14997689 -0.038768709 -3.6201219e-20)
(0.16486461 -0.039463948 1.8149165e-20)
(0.18054868 -0.040010181 2.2896944e-20)
(0.19703363 -0.040441018 -1.4794975e-20)
(0.21432507 -0.040779481 1.2789279e-21)
(0.23242945 -0.041045804 9.5635952e-21)
(0.25135793 -0.041256774 -2.0705569e-20)
(0.27112573 -0.041424444 7.3118451e-21)
(0.29175045 -0.041556223 1.11132e-20)
(0.31325065 -0.041655072 -2.7746338e-21)
(0.33564426 -0.041719471 -1.5440006e-21)
(0.35894632 -0.041743467 -1.2100782e-20)
(0.38316633 -0.041716931 9.6427209e-21)
(0.40830524 -0.041626044 1.4582477e-20)
(0.4343523 -0.041454016 -6.6803474e-21)
(0.46128177 -0.041182073 -3.3353591e-21)
(0.48904992 -0.040790658 5.5900454e-22)
(0.51759245 -0.0402608 -3.5987548e-21)
(0.54682263 -0.039575516 1.9633657e-21)
(0.5766303 -0.038721108 1.0115546e-21)
(0.60688199 -0.037688175 5.8761582e-21)
(0.63742196 -0.036472116 -6.0722321e-21)
(0.66807392 -0.035072898 6.7738123e-21)
(0.69864296 -0.033493871 1.3874805e-21)
(0.7289166 -0.031739585 3.3399675e-21)
(0.75866356 -0.029812981 1.6674143e-22)
(0.7876295 -0.027713181 2.8685686e-21)
(0.81552974 -0.025436027 -3.6492444e-21)
(0.84204298 -0.022979778 1.0193339e-21)
(0.86681323 -0.020356852 1.3430065e-21)
(0.88946996 -0.017608606 -3.7769744e-22)
(0.90967215 -0.014815681 -7.3637867e-22)
(0.92717097 -0.01209488 -9.5410134e-23)
(0.94187127 -0.0095784411 2.1045118e-22)
(0.95386455 -0.00738161 6.6760967e-23)
(0.96341518 -0.0055729858 6.3263741e-22)
(0.97090102 -0.0041619974 -1.9811775e-22)
(0.97673923 -0.0031076552 -1.0649531e-22)
(0.98130835 -0.0023415518 9.8220864e-23)
(0.98494554 -0.0017900839 1.0620434e-23)
(0.98783139 -0.0013930314 6.8204365e-23)
(0.99032486 -0.0010981721 4.1833744e-23)
(0.99200847 -0.00089553536 -4.6251693e-23)
(0.99449761 -0.00066136397 -4.5391773e-23)
(0.17160845 -0.037302654 1.9867727e-21)
(0.17669675 -0.041752323 -1.2520508e-20)
(0.18589512 -0.045209337 6.9883364e-21)
(0.19650436 -0.047342265 -1.5322108e-20)
(0.20727956 -0.049064039 -2.2956162e-21)
(0.21863958 -0.050571258 1.1415065e-20)
(0.2307909 -0.051792187 -1.3004946e-20)
(0.24367886 -0.052752746 7.5768426e-22)
(0.25728254 -0.053520215 1.5681426e-20)
(0.27162369 -0.054137735 5.0487349e-21)
(0.28671869 -0.054632766 -7.745986e-21)
(0.30257763 -0.055029944 -4.6100358e-21)
(0.31921282 -0.055350492 -5.9942532e-21)
(0.33663901 -0.055609947 -9.4504558e-21)
(0.3548715 -0.055818012 2.0897732e-21)
(0.3739253 -0.055978762 -1.7117715e-21)
(0.39381414 -0.056090553 3.0169723e-21)
(0.41454895 -0.05614598 -4.8143045e-21)
(0.43613576 -0.056132122 -8.548974e-21)
(0.45857335 -0.056031092 4.7884186e-21)
(0.48185057 -0.055820941 7.4227829e-21)
(0.50594369 -0.055476911 -4.914956e-21)
(0.53081376 -0.054973011 3.5896995e-21)
(0.55640431 -0.054283829 -1.8533005e-21)
(0.5826396 -0.053386425 -1.0912039e-20)
(0.60942368 -0.052262108 -5.705242e-21)
(0.63664023 -0.050897851 -1.5349575e-21)
(0.66415335 -0.049287072 -6.6100602e-22)
(0.69180906 -0.047429437 -3.6864291e-21)
(0.71943703 -0.045329392 -4.1398708e-21)
(0.74685179 -0.042993272 1.7680051e-22)
(0.77385211 -0.040425401 -3.6355051e-21)
(0.80021722 -0.037624736 -9.2107948e-22)
(0.82569974 -0.03458498 -1.534268e-21)
(0.850018 -0.031301695 8.9972888e-23)
(0.87285443 -0.027787992 -2.2958111e-21)
(0.89386981 -0.02409517 -2.5716366e-21)
(0.91274025 -0.020328121 4.5439535e-22)
(0.9292141 -0.016642763 5.5853617e-24)
(0.94317139 -0.01321902 -5.2524075e-22)
(0.95466012 -0.010216717 6.4667084e-22)
(0.96389053 -0.0077340981 -3.3368339e-22)
(0.97118568 -0.0057891579 -7.1868346e-22)
(0.97691581 -0.0043301946 2.523492e-22)
(0.98142476 -0.0032665561 -2.3205425e-23)
(0.98502747 -0.0024989199 6.8837869e-23)
(0.98789214 -0.0019453604 3.9426912e-23)
(0.99037106 -0.0015337523 -3.2750458e-23)
(0.99204549 -0.0012512722 -3.4813531e-23)
(0.99452431 -0.00092396102 6.6777089e-23)
(0.28492185 -0.044597437 -2.3688844e-20)
(0.28666778 -0.050161434 5.2880936e-20)
(0.29357195 -0.05430923 1.1399672e-20)
(0.30219203 -0.056779107 -1.8021576e-20)
(0.31058253 -0.058848752 -2.939691e-21)
(0.3193405 -0.060733128 2.3598648e-21)
(0.32884633 -0.062299467 -2.6827242e-21)
(0.33904276 -0.06356105 -5.5618499e-21)
(0.34989713 -0.064593749 -4.8448483e-21)
(0.36144606 -0.065446418 -1.4946255e-20)
(0.37371778 -0.06614867 2.3677558e-20)
(0.38672472 -0.066727009 9.3079573e-21)
(0.40047792 -0.067205103 -2.1528619e-20)
(0.41498942 -0.067600987 1.1282761e-20)
(0.43027013 -0.067926364 8.7190892e-21)
(0.4463292 -0.068186595 1.3545501e-21)
(0.46317386 -0.0683805 -2.4764795e-21)
(0.48080862 -0.068500189 -8.1246921e-21)
(0.49923383 -0.068531185 -3.4069652e-21)
(0.51844402 -0.068452947 -3.1735117e-21)
(0.53842593 -0.068239845 -7.44018e-21)
(0.55915642 -0.067862585 0)
(0.58060031 -0.06729006 -3.6184784e-21)
(0.60270846 -0.066491523 7.3044059e-21)
(0.62541619 -0.065438899 1.2445206e-20)
(0.64864229 -0.064109009 -1.2969249e-21)
(0.6722887 -0.062485396 -9.4564791e-21)
(0.69624091 -0.060559431 1.0655201e-20)
(0.72036918 -0.058330278 -2.297621e-21)
(0.74453005 -0.055803317 1.0106037e-20)
(0.76856777 -0.052986733 -4.3687527e-22)
(0.79231436 -0.049886607 3.5237432e-21)
(0.81558682 -0.046502239 -2.4585216e-21)
(0.83818062 -0.042825299 1.9706993e-21)
(0.85986101 -0.038847512 -1.7309656e-21)
(0.88035764 -0.034579506 5.5848585e-22)
(0.8993719 -0.030077057 1.0665506e-21)
(0.91660521 -0.025462248 7.5060976e-22)
(0.93180796 -0.020923058 -1.2812404e-21)
(0.94483533 -0.016681913 6.9211428e-22)
(0.95568662 -0.012941265 -1.5755413e-22)
(0.96450854 -0.0098304909 -1.0487016e-21)
(0.97155813 -0.0073801438 9.5634317e-22)
(0.9771478 -0.005532798 1.0518004e-22)
(0.98157802 -0.0041801762 -4.7236782e-23)
(0.98513544 -0.0032006616 1.5469431e-23)
(0.98797227 -0.002492859 -6.9711763e-23)
(0.99043207 -0.0019656777 -1.0227619e-22)
(0.9920945 -0.0016045392 -1.5008751e-23)
(0.9945597 -0.0011846174 -2.0271926e-23)
(0.41432336 -0.048663684 -1.9956456e-20)
(0.41177638 -0.055327682 1.3940309e-20)
(0.41529585 -0.060057519 4.188421e-21)
(0.42101759 -0.062842954 -8.6927822e-21)
(0.42624692 -0.065302 1.3811807e-20)
(0.43165279 -0.067619708 9.0387478e-21)
(0.43780857 -0.069607145 -1.4111392e-20)
(0.44467526 -0.071264142 -7.1805508e-21)
(0.45219474 -0.07266191 1.5202982e-20)
(0.46040552 -0.073847696 -2.0286091e-20)
(0.46934488 -0.074851798 -1.7262856e-20)
(0.47902583 -0.075701278 1.997624e-20)
(0.48945469 -0.076420584 8.771833e-21)
(0.50063737 -0.077029368 -8.8627993e-21)
(0.51257764 -0.077541317 -2.1837568e-22)
(0.52527636 -0.077963585 -3.1483533e-21)
(0.53873187 -0.078296361 4.6480861e-21)
(0.55293986 -0.078532523 5.170861e-21)
(0.56789271 -0.07865758 -3.952244e-21)
(0.58357843 -0.07865006 4.5631373e-21)
(0.59997943 -0.078482441 5.643245e-21)
(0.61707102 -0.078122645 -6.4309663e-21)
(0.63481981 -0.077536052 5.7932893e-22)
(0.65318218 -0.076687941 -4.8629576e-21)
(0.67210294 -0.075546152 2.1413504e-20)
(0.69151426 -0.074083699 1.5018121e-20)
(0.71133521 -0.072281018 4.0258493e-21)
(0.73147183 -0.070127438 -3.8906858e-21)
(0.75181787 -0.067621449 1.3280318e-20)
(0.77225611 -0.064769208 2.2889661e-20)
(0.79265994 -0.061580865 4.7588848e-21)
(0.81289418 -0.058064813 9.9252526e-21)
(0.83281368 -0.054221585 4.4535955e-21)
(0.85225795 -0.050041502 2.2474525e-21)
(0.87104215 -0.045511934 2.1302285e-23)
(0.88894845 -0.04063826 6.2471311e-21)
(0.90572633 -0.035475174 1.0992265e-21)
(0.92111094 -0.030154197 2.7966917e-22)
(0.93486224 -0.024887102 -4.7319309e-24)
(0.94681528 -0.019932318 1.6512781e-21)
(0.95692112 -0.015531933 -6.7733491e-23)
(0.96525936 -0.011847463 6.8765042e-22)
(0.97201448 -0.0089261266 1.0349665e-22)
(0.97743369 -0.0067102808 -4.9516532e-22)
(0.9817674 -0.0050793152 -1.0880316e-22)
(0.98526898 -0.0038933403 -1.8492042e-22)
(0.98807146 -0.0030341831 6.1894384e-23)
(0.99050761 -0.0023929314 -4.3809382e-23)
(0.9921553 -0.0019546494 1.087454e-24)
(0.99460358 -0.0014427857 1.2419997e-22)
(0.55288974 -0.048356947 3.4361705e-21)
(0.54529118 -0.056143893 -2.0280991e-20)
(0.54435007 -0.061423771 -2.7312687e-21)
(0.54624241 -0.064675509 6.0482373e-21)
(0.54764659 -0.067716767 3.9306837e-21)
(0.54910827 -0.070625743 8.8449854e-22)
(0.55134914 -0.073185235 8.307454e-21)
(0.55439218 -0.075398554 9.2783567e-21)
(0.55815516 -0.07732283 1.1370537e-20)
(0.56265653 -0.078994397 -1.3947203e-20)
(0.56793198 -0.080442001 -2.7888647e-20)
(0.57399277 -0.081693241 -6.1647023e-21)
(0.58083775 -0.082773019 2.1492881e-20)
(0.58846323 -0.08370242 1.7497672e-20)
(0.59686311 -0.084497554 -6.6760481e-21)
(0.60602799 -0.085168319 -2.8750359e-22)
(0.61594557 -0.085717546 -7.3030337e-21)
(0.62660102 -0.086140423 7.4752953e-21)
(0.63797698 -0.086424207 -4.2164645e-22)
(0.65005313 -0.086548413 -3.3682139e-21)
(0.66280554 -0.086485605 1.6451993e-20)
(0.67620583 -0.086202857 -1.9398199e-21)
(0.69022011 -0.085663834 2.1700728e-21)
(0.70480788 -0.084831399 6.3019681e-22)
(0.71992093 -0.083670541 -9.2759296e-21)
(0.73550234 -0.082151342 9.2186712e-21)
(0.75148584 -0.080251604 2.6449054e-21)
(0.7677955 -0.077958743 -7.2339602e-21)
(0.78434607 -0.075270452 -6.5328896e-21)