/*--------------------------------*- C++ -*----------------------------------*\
  =========                 |
  \\      /  F ield         | OpenFOAM: The Open Source CFD Toolbox
   \\    /   O peration     | Website:  https://openfoam.org
    \\  /    A nd           | Version:  6
     \\/     M anipulation  |
\*---------------------------------------------------------------------------*/
FoamFile
{
    version     2.0;
    format      ascii;
    class       volVectorField;
    location    "84";
    object      U_0;
}
// * * * * * * * * * * * * * * * * * * * * * * * * * * * * * * * * * * * * * //

dimensions      [0 1 -1 0 0 0 0];

internalField   nonuniform List<vector> 
9200
(
(0.0010412505 0.0014189684 -5.9216386e-20)
(0.013684319 -0.0020627514 4.6055718e-20)
(0.038331047 -0.0058742421 -3.8512041e-20)
(0.072304569 -0.0097745073 -6.027341e-20)
(0.11380928 -0.013504444 1.8832532e-20)
(0.16164166 -0.016623526 3.2752901e-20)
(0.21474997 -0.018838624 -1.2271915e-20)
(0.27216336 -0.019998723 9.2718967e-21)
(0.33297298 -0.020039594 1.6807593e-20)
(0.39629991 -0.01896104 1.4852266e-21)
(0.46127137 -0.016815546 -2.1462957e-20)
(0.52701123 -0.01369738 2.0676627e-20)
(0.59264221 -0.0097317993 -4.0434278e-20)
(0.65729811 -0.0050640214 -2.1141445e-20)
(0.72014441 0.0001525287 5.9066332e-21)
(0.78040482 0.0057658874 -2.5141891e-20)
(0.83740743 0.011649006 2.5228626e-20)
(0.89070931 0.017848621 2.2258642e-20)
(0.93991169 0.024496997 -2.962925e-22)
(0.98229061 0.028210918 -1.6653596e-21)
(0.0052554092 -0.001348019 -1.7063542e-20)
(0.026974724 -0.0089952215 3.9758375e-20)
(0.061694675 -0.014819841 2.3582538e-20)
(0.10633439 -0.019185931 -1.1572558e-19)
(0.15879215 -0.022231089 -1.2730605e-20)
(0.2176086 -0.023741073 7.3314369e-20)
(0.28146774 -0.023618671 -3.5485511e-20)
(0.34912106 -0.021895679 -8.39268e-21)
(0.41937452 -0.018675398 3.4296946e-20)
(0.49106441 -0.014113976 -4.3272315e-20)
(0.56304569 -0.0084125327 -3.0348589e-20)
(0.63419841 -0.001806896 7.1948007e-20)
(0.7034474 0.0054440209 3.8307919e-20)
(0.76979121 0.013069768 -6.800457e-20)
(0.83233592 0.020798264 1.4630699e-20)
(0.89032848 0.028360451 -3.6750718e-20)
(0.94319845 0.035504512 -1.378224e-20)
(0.99065937 0.042069362 7.1015876e-20)
(1.0325778 0.04763717 2.9666941e-20)
(1.0671489 0.049055692 -8.3505003e-20)
(0.010863257 -0.0040447945 3.6781684e-20)
(0.043970286 -0.015438741 2.5052142e-21)
(0.090547576 -0.022564158 2.2347731e-20)
(0.14716121 -0.02651281 9.8139033e-22)
(0.21141179 -0.027904945 -4.0785181e-20)
(0.2815575 -0.02681667 1.8580269e-20)
(0.35598132 -0.023407005 1.3423974e-20)
(0.4331219 -0.017948471 -5.0340956e-20)
(0.51147662 -0.010765311 5.7278103e-20)
(0.5895964 -0.0022164681 1.4262115e-20)
(0.66609557 0.0073120648 -5.4320354e-20)
(0.73968008 0.017420733 -1.8245729e-20)
(0.80918573 0.027712823 9.0578831e-21)
(0.87361887 0.037810752 2.3455566e-20)
(0.9321927 0.047370164 -1.1369028e-20)
(0.98435206 0.05608919 2.7891183e-20)
(1.0297885 0.063723017 -2.0197114e-20)
(1.0684722 0.070131489 -7.0162105e-20)
(1.1005308 0.075039595 -2.3811418e-20)
(1.1250995 0.076555251 4.8677939e-20)
(0.01796391 -0.0064250219 2.4513106e-20)
(0.064799114 -0.020703447 5.1050664e-20)
(0.12489272 -0.028073719 1.9885981e-20)
(0.19453042 -0.030480218 1.2992188e-20)
(0.27103162 -0.029113714 1.7279143e-20)
(0.35235313 -0.024410194 -4.7731297e-20)
(0.43655745 -0.01684934 -2.565337e-20)
(0.52176674 -0.0070022029 0)
(0.6061943 0.0045391278 1.3927828e-20)
(0.68816846 0.017181072 -5.8571388e-21)
(0.7661694 0.030339975 -9.7969691e-20)
(0.8388779 0.043461761 -1.5778579e-20)
(0.90522406 0.056044131 6.5133382e-20)
(0.96442609 0.067656348 4.8079555e-22)
(1.0160119 0.077954 -1.5733156e-21)
(1.0598189 0.086686636 2.1968381e-20)
(1.095973 0.093705263 -5.2682597e-21)
(1.1248662 0.098991355 -6.1060398e-20)
(1.1470401 0.10251611 -4.5876791e-20)
(1.1624599 0.10332645 6.9548289e-20)
(0.026588208 -0.0082088187 -3.9199425e-21)
(0.089371832 -0.02404252 -5.126528e-21)
(0.16435669 -0.030277886 5.6610962e-20)
(0.24765307 -0.029825619 1.8542912e-20)
(0.33633667 -0.024530669 -3.1962055e-20)
(0.42806911 -0.015259175 1.21665e-20)
(0.52061196 -0.0028722632 2.6409976e-21)
(0.61182223 0.01171442 3.3620125e-20)
(0.69972213 0.027615256 5.6618571e-21)
(0.78255619 0.044001042 -1.3211388e-20)
(0.85885074 0.060116392 6.0182259e-20)
(0.92747059 0.075304711 -5.803025e-20)
(0.98765911 0.089031871 -1.3222334e-19)
(1.0390527 0.10090209 -5.5798522e-21)
(1.0816664 0.11066365 8.3191148e-20)
(1.1158514 0.11820374 0)
(1.142231 0.12353849 1.0123235e-20)
(1.1616325 0.12681623 -1.5467422e-20)
(1.1749726 0.12821762 -8.6039389e-21)
(1.1828114 0.12736182 2.100122e-20)
(0.036677954 -0.009092722 -5.43107e-21)
(0.11734886 -0.024694009 4.3587068e-21)
(0.20817662 -0.028152016 -8.7646514e-21)
(0.30523966 -0.023428669 2.8477985e-20)
(0.40544225 -0.013090542 -2.9399508e-20)
(0.50620111 0.0015066675 -1.6931314e-20)
(0.60505493 0.019078064 3.7371656e-20)
(0.69971678 0.038346585 4.7599526e-21)
(0.78818442 0.058146656 -2.4447862e-20)
(0.86882362 0.077458796 6.9893152e-20)
(0.94043407 0.095430249 5.2071748e-22)
(1.0022906 0.11139805 -8.0480827e-20)
(1.054149 0.12490346 0)
(1.0962135 0.13569151 3.9561812e-20)
(1.1290702 0.14369552 5.52655e-21)
(1.1535963 0.14900897 -7.7602286e-20)
(1.1708573 0.15185222 -1.9595862e-20)
(1.1820102 0.15255011 -1.247336e-20)
(1.188197 0.15144626 -1.4716386e-20)
(1.1902746 0.14849942 4.0438675e-20)
(0.048072254 -0.0087702571 -1.7280341e-20)
(0.14812279 -0.021939483 -2.2219384e-21)
(0.25520709 -0.02080748 3.0385411e-20)
(0.36555639 -0.01042331 3.7490157e-20)
(0.47602132 0.0058906792 -1.9948945e-20)
(0.58388177 0.026257981 -6.9181553e-20)
(0.6865995 0.048965009 -2.8005468e-20)
(0.78193407 0.072403905 7.895433e-20)
(0.86808386 0.095195874 8.5832097e-21)
(0.94377636 0.11622916 -2.4881109e-20)
(1.008314 0.13467288 1.3644634e-20)
(1.0615725 0.14998429 -4.3223754e-21)
(1.103949 0.16189876 0)
(1.1362693 0.17039947 2.7214924e-20)
(1.1596671 0.17567119 -7.9356333e-20)
(1.1754548 0.17804485 -3.1489032e-20)
(1.1849999 0.1779427 8.1089516e-20)
(1.1896256 0.17583793 -4.2995783e-21)
(1.1905278 0.17217854 3.5574115e-21)
(1.1886249 0.16711093 2.7124466e-20)
(0.060500961 -0.0069595987 -3.2418907e-20)
(0.18082307 -0.015175889 -8.1639092e-20)
(0.30396341 -0.0075898822 2.5778185e-21)
(0.42652668 0.0096972323 7.0177023e-20)
(0.54547684 0.032625824 6.2438992e-20)
(0.65812689 0.058814297 -7.1590282e-20)
(0.76207084 0.086169882 -2.8004503e-22)
(0.85535621 0.11284363 8.555317e-20)
(0.93663317 0.13736632 4.8844743e-20)
(1.005223 0.158677 -5.4239613e-20)
(1.061115 0.1761132 -9.2369879e-20)
(1.1048984 0.18938456 -3.1602216e-21)
(1.1376426 0.19852343 4.214454e-20)
(1.1607453 0.2038154 -6.6084043e-21)
(1.1757733 0.20572004 -1.2873812e-20)
(1.1843169 0.20479244 1.9698083e-20)
(1.1878731 0.20161618 4.3898393e-20)
(1.1877676 0.19675767 -4.3876659e-20)
(1.1851103 0.19070583 -1.0236497e-19)
(1.1807334 0.18369649 2.4578864e-20)
(0.07355512 -0.0034342618 -3.4986437e-20)
(0.21427733 -0.0039917765 -1.7390954e-19)
(0.3525973 0.011837292 8.2122375e-20)
(0.48573592 0.037017599 9.2788344e-20)
(0.610985 0.06683586 5.7983699e-20)
(0.72591704 0.098481639 8.6132341e-21)
(0.82851121 0.12959626 -1.0627054e-19)
(0.91736133 0.15823932 0)
(0.99180205 0.1830206 -6.8775485e-20)
(1.0519257 0.20309903 -1.520896e-20)
(1.0985076 0.21812909 5.4723758e-20)
(1.1328632 0.22818425 1.0977713e-20)
(1.1566651 0.23365877 -4.563094e-20)
(1.1717521 0.23515854 -4.9099415e-20)
(1.1799569 0.23339575 2.4297391e-20)
(1.1829732 0.22909954 4.4840863e-20)
(1.1822693 0.22295074 -5.5622436e-20)
(1.1790496 0.21554434 -1.0755294e-19)
(1.1742542 0.20735419 -3.1513017e-21)
(1.1685585 0.19864706 2.7056874e-20)
(0.08667029 0.0019613544 -3.5470802e-21)
(0.24701491 0.011817328 8.7928915e-20)
(0.39893328 0.037495304 -1.6472814e-20)
(0.54051736 0.071223766 -8.4332336e-20)
(0.66963354 0.10779582 4.5176344e-20)
(0.78437034 0.14412239 4.9185632e-20)
(0.88335086 0.17776197 5.5374663e-21)
(0.96594547 0.20688672 -9.9534308e-20)
(1.0323437 0.23038479 -2.5057483e-21)
(1.0834971 0.24780602 5.0521891e-20)
(1.1209654 0.25924644 5.9876845e-21)
(1.1467067 0.26521226 -1.9724481e-20)
(1.1628534 0.26647414 -7.5731686e-20)
(1.1715108 0.26392818 -6.2571108e-21)
(1.1746026 0.25848003 4.3548588e-20)
(1.1737739 0.25096108 3.7034888e-20)
(1.1703508 0.24207931 1.9799395e-20)
(1.1653468 0.23239991 -5.3017426e-20)
(1.1595027 0.22234168 1.2958272e-20)
(1.1533216 0.21217226 8.2688198e-20)
(-0.001293647 0.0014350795 -1.1236174e-21)
(-0.0047473296 0.0031882945 2.0651817e-21)
(-0.010774333 0.0041369846 8.8019421e-22)
(-0.01775901 0.0045406507 -2.4406059e-21)
(-0.02474666 0.0045664547 -1.4127133e-21)
(-0.031307309 0.004326924 1.5474697e-21)
(-0.037170096 0.0039042181 -6.873549e-21)
(-0.042156894 0.0033581586 -5.9606381e-21)
(-0.04616751 0.0027315469 1.1177563e-20)
(-0.049155785 0.0020547026 -9.7476214e-21)
(-0.051109675 0.0013488592 -1.9844949e-22)
(-0.052038442 0.00062864856 3.6692591e-21)
(-0.051964251 -9.6014283e-05 -6.3326254e-22)
(-0.050916434 -0.00081842739 2.2831127e-20)
(-0.048927875 -0.0015337365 3.0407377e-22)
(-0.046034469 -0.0022374846 -4.090641e-20)
(-0.042277422 -0.0029250224 7.5432655e-21)
(-0.037695008 -0.0035942628 2.3878495e-20)
(-0.032295602 -0.0042437075 -4.3879707e-20)
(-0.026138595 -0.0048253335 -2.7756955e-20)
(-0.0016526715 0.0041820806 -5.3734654e-21)
(-0.0053989546 0.0092706617 1.0867778e-20)
(-0.011221417 0.012010529 -1.0194629e-20)
(-0.017662388 0.013156929 3.9254787e-21)
(-0.023862032 0.013198334 4.8151737e-21)
(-0.02943983 0.012465179 7.1363559e-22)
(-0.034159355 0.011198846 -2.2521085e-20)
(-0.037867497 0.0095749952 -2.0379116e-21)
(-0.040481031 0.0077192681 2.0173177e-20)
(-0.041964775 0.0057206264 -5.0498127e-21)
(-0.04231341 0.0036413163 -2.177339e-20)
(-0.041539872 0.0015241636 4.8997884e-21)
(-0.039667772 -0.00060191372 2.2646739e-20)
(-0.036726092 -0.0027174907 1.0313862e-20)
(-0.032745398 -0.0048086085 2.1866592e-20)
(-0.027758266 -0.0068626904 -1.9781826e-20)
(-0.021808972 -0.0088667399 -2.1685254e-20)
(-0.01494486 -0.010814162 2.1197866e-20)
(-0.0071012679 -0.01269043 2.6826501e-20)
(0.0019093239 -0.01433014 1.5863714e-20)
(-0.0023040462 0.0065620799 -4.3583802e-21)
(-0.00654085 0.014484001 -5.6396815e-21)
(-0.011894846 0.018715161 3.0713221e-22)
(-0.017214691 0.020432862 1.0952439e-21)
(-0.021823224 0.020404559 6.6944181e-21)
(-0.025435147 0.019155102 1.0669216e-20)
(-0.027880837 0.017068674 -3.7244929e-21)
(-0.029055808 0.014424939 -1.8904241e-20)
(-0.028909911 0.01142414 6.5442667e-21)
(-0.027429633 0.0082082127 1.2868509e-20)
(-0.024623353 0.0048765041 5.8371233e-21)
(-0.020512125 0.0014972921 1.8167534e-20)
(-0.015123673 -0.0018835815 1.7304488e-21)
(-0.0084880212 -0.0052358412 -3.3881246e-20)
(-0.00063368238 -0.0085381908 1.2032262e-21)
(0.0084108594 -0.011771798 -2.2149705e-20)
(0.01859417 -0.014919021 -2.4480637e-20)
(0.029847782 -0.017971048 4.5846583e-20)
(0.042359831 -0.0208749 2.5365199e-20)
(0.056804127 -0.023269985 1.2366717e-22)
(-0.0031298032 0.008371211 -5.2852615e-21)
(-0.0078981332 0.01834106 -8.4864731e-21)
(-0.012441287 0.02359325 4.3605826e-21)
(-0.016028877 0.025615051 4.1479187e-21)
(-0.018236789 0.025387436 2.0111972e-21)
(-0.018913171 0.023592851 7.3242116e-21)
(-0.017983287 0.020732313 9.316417e-21)
(-0.015412592 0.017170685 -1.3517777e-21)
(-0.011199473 0.013169703 -1.1486818e-20)
(-0.0053634052 0.0089152467 -2.9084477e-20)
(0.0020650202 0.0045375414 6.2094693e-23)
(0.011049355 0.00012607254 4.0716011e-20)
(0.021551898 -0.004259665 -1.8390999e-20)
(0.033535267 -0.0085809139 -1.2301862e-20)
(0.046966616 -0.012811639 5.5299552e-22)
(0.061815861 -0.016930875 3.2319102e-20)
(0.078019433 -0.020923794 -1.4838664e-20)
(0.09547031 -0.024788796 -5.3366832e-20)
(0.11448922 -0.028408595 4.5788896e-20)
(0.13645074 -0.031105318 3.3030941e-20)
(-0.0039713003 0.0094680896 -6.8775832e-22)
(-0.009093338 0.020492445 -1.2538734e-20)
(-0.012366016 0.026164505 -3.4157307e-20)
(-0.013553056 0.028148473 -5.726867e-21)
(-0.012531833 0.027559116 -3.6229454e-21)
(-0.0093124891 0.025190617 6.3075819e-21)
(-0.0039376631 0.021628022 -4.6481676e-21)
(0.003538792 0.01729734 -8.81049e-21)
(0.013055123 0.012504674 2.1908093e-20)
(0.024546164 0.0074677168 5.0584485e-21)
(0.037948085 0.00233936 -2.5301207e-20)
(0.053198642 -0.0027753073 1.1082518e-20)
(0.070237761 -0.007806537 0)
(0.089008229 -0.012710269 1.2094811e-20)
(0.1094589 -0.017459362 -9.7059418e-21)
(0.13154376 -0.022036003 -1.4344153e-20)
(0.15517434 -0.026438623 -1.5725749e-21)
(0.18018277 -0.030693505 -2.2200451e-21)
(0.20698449 -0.034614952 4.6167202e-20)
(0.23781257 -0.037062477 -1.0478295e-20)
(-0.0046460037 0.0097830612 -7.5377928e-21)
(-0.0096785883 0.020751993 2.4524826e-20)
(-0.011064683 0.026165503 -1.0503372e-20)
(-0.0090948191 0.027728321 -2.7478581e-20)
(-0.0039741988 0.026604148 -2.7556711e-20)
(0.0041063728 0.023648879 -1.4926696e-20)
(0.01497015 0.019494533 -6.909272e-22)
(0.028459184 0.014600071 5.5518616e-21)
(0.044434184 0.0092958509 1.96225e-20)
(0.062770764 0.0038176459 7.3557004e-21)
(0.08335496 -0.0016688884 -7.1886918e-21)
(0.10608114 -0.0070499138 -2.0104634e-21)
(0.13084838 -0.012250489 -3.8206634e-20)
(0.15755799 -0.017225033 -1.2698704e-20)
(0.18611534 -0.021949082 1.8759461e-20)
(0.21643089 -0.026413317 -2.1031464e-20)
(0.24836803 -0.030640275 -8.9770592e-21)
(0.28167188 -0.034713359 3.0452358e-20)
(0.31677825 -0.038412563 5.0493089e-20)
(0.35684101 -0.040016751 3.3576712e-21)
(-0.0049625402 0.0093157994 1.6787714e-20)
(-0.0091668571 0.019100708 1.4471796e-20)
(-0.0078577916 0.023566215 5.116124e-20)
(-0.0018531455 0.024330653 2.3395798e-20)
(0.0083064256 0.022523613 1.8258039e-22)
(0.022239361 0.019011791 -3.9401349e-20)
(0.039622939 0.014435514 -2.4321743e-20)
(0.060182796 0.0092577988 1.046904e-20)
(0.083684686 0.0038112757 1.4406194e-20)
(0.10992419 -0.0016668578 -1.3117491e-20)
(0.13871626 -0.0070103663 -4.4053931e-20)
(0.16988663 -0.012106181 2.9629075e-20)
(0.20326434 -0.016881643 2.0027167e-20)
(0.23867608 -0.021295798 -2.7561386e-20)
(0.2759461 -0.025332689 1.1654968e-20)
(0.31489975 -0.0289981 2.4207128e-20)
(0.35531541 -0.032348795 8.0760728e-21)
(0.39682234 -0.035557433 -1.1770124e-20)
(0.43978385 -0.038448741 -1.4194578e-20)
(0.48821094 -0.038695933 5.8799248e-21)
(-0.0047312262 0.0081248916 1.1097092e-20)
(-0.0070579284 0.015672607 -2.3360884e-20)
(-0.0020251427 0.018562585 8.6216208e-21)
(0.0090422994 0.01821506 3.359865e-20)
(0.025273455 0.015647618 5.2140038e-20)
(0.046092381 0.011689227 2.0282665e-20)
(0.07102105 0.0069513747 -5.8658669e-21)
(0.099650403 0.0018698958 -1.2289686e-20)
(0.13163068 -0.0032439567 -6.2079864e-21)
(0.16665195 -0.008170312 3.4251519e-20)
(0.20442622 -0.012758045 -4.5126441e-21)
(0.24467351 -0.016908146 -1.6649235e-20)
(0.28711088 -0.020562039 -1.9699783e-20)
(0.3314443 -0.023694314 -4.7460679e-20)
(0.3773674 -0.026308134 2.3247095e-20)
(0.42456907 -0.028435303 -1.4101506e-20)
(0.4726994 -0.030180023 2.6004621e-20)
(0.52125352 -0.031840677 2.1049558e-20)
(0.57044779 -0.033413544 -8.5597956e-20)
(0.62495867 -0.032127426 -1.0647332e-22)
(-0.003770964 0.0063151546 2.1930852e-20)
(-0.0028632429 0.010734664 -2.6173858e-20)
(0.0071498695 0.011562 -4.5026149e-20)
(0.024465534 0.0099205249 -2.7261873e-20)
(0.04789567 0.0066450114 -2.0445807e-21)
(0.076664839 0.0024801267 1.3053416e-20)
(0.11012582 -0.0020293507 -2.8341823e-21)
(0.14771559 -0.0065055331 1.8123465e-20)
(0.18894024 -0.010684978 8.8707233e-21)
(0.2333481 -0.014387891 -1.1383389e-20)
(0.28050541 -0.017498557 8.8814136e-21)
(0.32997837 -0.019950695 -2.3910745e-20)
(0.38131989 -0.021717015 8.0538292e-21)
(0.43406067 -0.022802776 1.6762385e-20)
(0.48770753 -0.023241946 -2.640405e-21)
(0.54175289 -0.023099438 1.6623489e-21)
(0.59565753 -0.022527019 -3.191406e-22)
(0.64875461 -0.02193278 1.9598156e-20)
(0.70107163 -0.021513037 4.0449249e-21)
(0.75771069 -0.018572821 -5.814939e-22)
(-0.0019101521 0.0040271027 2.3698979e-20)
(0.003874452 0.0046741018 5.7177423e-20)
(0.020327585 0.0031830101 -4.9257905e-20)
(0.045200318 0.00028658701 -9.9482202e-21)
(0.076999067 -0.0034351843 2.0261622e-20)
(0.1147439 -0.007368026 2.1439352e-21)
(0.15760189 -0.011072954 -2.982289e-20)
(0.20482815 -0.014265812 6.9862732e-21)
(0.2557472 -0.01676338 7.1122687e-21)
(0.30972109 -0.018456292 -2.62618e-20)
(0.36612193 -0.019293435 1.2932497e-21)
(0.42431415 -0.019269345 -3.7185991e-20)
(0.48364429 -0.018413989 -3.6353385e-20)
(0.54343676 -0.01678457 6.5707611e-20)
(0.60299573 -0.014458332 5.5649894e-21)
(0.66161117 -0.011531914 -1.5196287e-20)
(0.71854267 -0.0081632912 1.9371386e-20)
(0.77294383 -0.0046595486 -9.1924306e-22)
(0.82434028 -0.0010404401 2.0368347e-20)
(0.87647524 0.0042495881 -1.9566598e-20)
(-0.018811552 -0.0051042612 5.8390986e-20)
(-0.010191851 -0.0056399818 1.5793671e-20)
(-0.00017919256 -0.0060744204 -3.516323e-20)
(0.010875593 -0.0063400659 1.6802949e-20)
(0.022706318 -0.0065183955 0)
(0.035254381 -0.0066368222 0)
(0.048460029 -0.0066980749 -2.2992878e-20)
(0.062243586 -0.0067099939 -1.6515778e-20)
(0.076534683 -0.0066819664 1.9139291e-20)
(0.091273861 -0.0066207826 1.818991e-20)
(0.1064062 -0.006531635 1.0530814e-21)
(0.12187995 -0.0064190883 -1.0326367e-20)
(0.13764687 -0.0062871025 8.3359571e-21)
(0.1536618 -0.0061390265 1.82499e-20)
(0.16988207 -0.0059777256 -5.2343e-21)
(0.18626709 -0.0058056869 -1.0184158e-20)
(0.20277821 -0.0056250837 -4.3235292e-21)
(0.21937849 -0.0054378274 -4.4289107e-21)
(0.23603263 -0.0052456123 7.3701186e-22)
(0.25270687 -0.0050499515 1.2301023e-21)
(0.26936903 -0.0048522025 2.5709538e-21)
(0.28598848 -0.0046535881 6.6623688e-21)
(0.30253621 -0.0044552105 2.4718322e-22)
(0.31898489 -0.0042580622 -3.4566969e-21)
(0.33530892 -0.0040630342 1.5531863e-22)
(0.35148448 -0.0038709217 -5.7811523e-22)
(0.36748962 -0.0036824283 1.2458365e-21)
(0.38330428 -0.0034981703 1.0534574e-21)
(0.39891032 -0.0033186805 -1.303896e-21)
(0.41429155 -0.0031444115 -1.2196486e-22)
(0.42943375 -0.00297574 3.2869069e-23)
(0.44432462 -0.0028129711 -3.5314612e-22)
(0.45895381 -0.0026563435 -4.0884228e-22)
(0.47331287 -0.0025060345 5.7587688e-23)
(0.48739519 -0.0023621662 -1.3892663e-22)
(0.50119604 -0.0022248113 -2.2464963e-22)
(0.51471246 -0.0020940005 2.5750938e-22)
(0.52794335 -0.0019697288 2.9749923e-22)
(0.54088929 -0.0018519654 -9.9967874e-24)
(0.55355305 -0.0017406572 -1.5954432e-22)
(0.56593836 -0.001635759 3.0354007e-23)
(0.57805422 -0.0015371847 -4.0622113e-23)
(0.58990253 -0.0014450371 9.576381e-23)
(0.60151752 -0.0013589787 2.1096086e-23)
(0.61285053 -0.001280409 -1.2404226e-22)
(0.62411592 -0.0012059588 -7.5297352e-24)
(0.6347916 -0.0011484814 3.9442934e-25)
(0.64652802 -0.0010738661 -4.90361e-24)
(0.65485359 -0.001095774 2.9083211e-23)
(0.67236017 -0.0009266621 3.7312957e-22)
(0.01048865 -0.015031512 -1.2756481e-20)
(0.018230592 -0.016656351 -6.3343352e-20)
(0.027839654 -0.017932174 -3.0564401e-20)
(0.038456308 -0.018690041 3.8503912e-20)
(0.049703887 -0.019202697 1.4673627e-20)
(0.06160236 -0.019549661 -1.8220376e-20)
(0.074122564 -0.019731175 4.6778994e-21)
(0.087187646 -0.019768835 2.5467131e-20)
(0.10073461 -0.019690616 9.0114773e-23)
(0.1147133 -0.019515991 -7.6665348e-21)
(0.12907564 -0.019259571 -1.3029175e-20)
(0.14377509 -0.018934412 -8.5339845e-21)
(0.15876783 -0.018551935 1.7788026e-20)
(0.1740124 -0.018121802 8.9441184e-21)
(0.18946913 -0.017652301 -1.6534347e-20)
(0.20509993 -0.017150662 -6.044727e-21)
(0.22086813 -0.01662323 3.2165727e-21)
(0.23673848 -0.016075607 8.3781216e-21)
(0.25267702 -0.015512779 6.9914976e-21)
(0.26865113 -0.014939215 -6.9842897e-21)
(0.28462954 -0.014358936 -3.1772689e-21)
(0.30058238 -0.013775578 1.3669184e-21)
(0.31648124 -0.013192423 3.933035e-22)
(0.33229928 -0.012612437 1.2147742e-21)
(0.34801127 -0.012038285 1.8545823e-22)
(0.36359369 -0.011472353 -3.2873909e-22)
(0.37902478 -0.010916753 -7.272892e-22)
(0.39428458 -0.010373342 9.7802285e-22)
(0.409355 -0.0098437268 8.2966758e-22)
(0.42421983 -0.0093292761 -1.5644065e-22)
(0.43886475 -0.0088311331 5.5767428e-22)
(0.4532773 -0.0083502277 -2.3966926e-22)
(0.46744693 -0.0078872914 -3.7521873e-22)
(0.48136492 -0.0074428729 -6.157144e-22)
(0.49502438 -0.0070173553 4.4438555e-22)
(0.50842022 -0.0066109749 -2.0775653e-23)
(0.52154913 -0.0062238417 1.6687376e-22)
(0.53440956 -0.005855959 -4.5058925e-22)
(0.54700169 -0.0055072529 3.8408696e-22)
(0.55932781 -0.0051775813 6.8379283e-23)
(0.57139119 -0.0048668268 -1.0302919e-22)
(0.58320031 -0.004574748 1.8513367e-22)
(0.59475665 -0.0043016683 2.4763233e-22)
(0.60609366 -0.0040465943 1.8204367e-22)
(0.6171629 -0.00381372 1.837442e-22)
(0.62817574 -0.003593008 -2.9071152e-23)
(0.63861676 -0.0034227842 9.9847713e-23)
(0.65011265 -0.0032014698 9.2181053e-23)
(0.65825875 -0.0032671425 -2.1727905e-22)
(0.6754432 -0.0027655027 -3.5250219e-23)
(0.067690148 -0.024052924 9.4595284e-21)
(0.073673554 -0.026775055 3.2987835e-21)
(0.082359481 -0.028833816 -1.2174684e-20)
(0.092053094 -0.029998648 -1.2284347e-21)
(0.10210062 -0.030799795 1.49835e-20)
(0.11267686 -0.031364595 -1.4898524e-20)
(0.1238207 -0.031671494 -2.986788e-20)
(0.1354569 -0.031750077 1.4507454e-20)
(0.14753356 -0.031646295 1.8199358e-20)
(0.1600178 -0.03139025 -1.1609844e-20)
(0.17287403 -0.031003499 1.0199589e-21)
(0.18606467 -0.030505871 8.6897444e-21)
(0.19955353 -0.029915068 -1.5270379e-20)
(0.21330561 -0.029246122 2.9214057e-21)
(0.22728639 -0.028511985 7.5294854e-21)
(0.24146195 -0.027724055 2.4641231e-23)
(0.25579904 -0.026892429 2.6119679e-22)
(0.27026515 -0.026026091 -7.4269496e-21)
(0.2848286 -0.025133099 3.8756449e-21)
(0.29945857 -0.024220722 8.4899912e-21)
(0.31412528 -0.023295545 -3.8422535e-21)
(0.32880005 -0.022363548 -2.2160126e-21)
(0.34345544 -0.021430162 1.0116217e-21)
(0.35806535 -0.02050031 -1.7206051e-21)
(0.37260512 -0.019578435 1.3554063e-21)
(0.38705163 -0.018668524 7.1973201e-22)
(0.40138337 -0.017774126 1.5395347e-21)
(0.41558052 -0.016898364 -1.9664619e-21)
(0.42962498 -0.016043957 2.2406893e-21)
(0.44350042 -0.015213228 5.5586035e-22)
(0.45719228 -0.01440813 4.136068e-22)
(0.4706878 -0.013630263 3.2249321e-22)
(0.48397598 -0.0128809 8.8595689e-22)
(0.49704761 -0.01216101 -1.3913378e-21)
(0.50989521 -0.011471287 3.775173e-22)
(0.52251304 -0.010812182 1.1668406e-22)
(0.53489705 -0.010183938 -4.7745208e-23)
(0.54704496 -0.0095866161 8.3900139e-23)
(0.5589561 -0.0090201522 -3.8105218e-22)
(0.57063192 -0.0084843664 1.8992995e-22)
(0.58207481 -0.0079791188 -3.5683899e-23)
(0.5932923 -0.0075040613 4.1399162e-22)
(0.60428504 -0.0070597811 -1.9791493e-22)
(0.61508508 -0.006644683 4.9562172e-23)
(0.62564437 -0.0062657377 4.8180314e-23)
(0.63616863 -0.0059064493 -8.1742253e-23)
(0.64615519 -0.0056299 -1.4208625e-22)
(0.65718514 -0.0052693439 4.4332224e-22)
(0.66498301 -0.0053784723 1.930834e-22)
(0.68154307 -0.0045613172 -8.5922415e-22)
(0.15033297 -0.031494732 1.5030374e-21)
(0.1536734 -0.035294475 -1.1571931e-20)
(0.16075334 -0.038050867 6.6464761e-21)
(0.16895491 -0.03952149 -1.3333953e-20)
(0.1771438 -0.040565391 -1.9772627e-21)
(0.18569837 -0.041349295 9.1691316e-21)
(0.19477348 -0.041806512 -9.7785872e-21)
(0.20429162 -0.041965163 1.5638708e-21)
(0.21420887 -0.041886891 1.2914519e-20)
(0.22451481 -0.041609942 3.4087507e-21)
(0.2351902 -0.041159642 -6.2151329e-21)
(0.24620799 -0.040559983 -2.869233e-21)
(0.25754083 -0.039833175 -5.8420302e-21)
(0.26916125 -0.038998339 -6.464181e-21)
(0.28104077 -0.038072089 3.232942e-21)
(0.29315016 -0.037069233 8.3963197e-22)
(0.30545997 -0.036003071 1.3722383e-21)
(0.31794072 -0.034885595 -3.3887888e-21)
(0.33056311 -0.033727677 -4.2536871e-21)
(0.34329828 -0.032539221 2.367685e-21)
(0.35611793 -0.031329282 3.2355293e-21)
(0.36899459 -0.03010614 -1.5718985e-21)
(0.38190172 -0.028877364 1.5918752e-21)
(0.3948139 -0.027649854 -3.9493072e-22)
(0.40770696 -0.026429869 -3.9387703e-21)
(0.42055807 -0.025223049 -3.0421381e-21)
(0.43334584 -0.024034436 -1.939275e-22)
(0.44605044 -0.022868493 4.2632251e-22)
(0.45865359 -0.021729117 -2.2191531e-21)
(0.47113867 -0.020619667 -8.6674467e-22)
(0.48349069 -0.019542982 2.2907199e-22)
(0.49569636 -0.018501413 -1.2636131e-21)
(0.50774402 -0.017496854 3.152802e-24)
(0.51962372 -0.016530777 -4.3185344e-22)
(0.53132713 -0.015604273 -4.7480628e-22)
(0.54284758 -0.01471809 -5.3514907e-22)
(0.55418005 -0.013872682 -8.6502394e-22)
(0.56532116 -0.013068255 -5.2845802e-23)
(0.57626915 -0.012304834 -3.9660882e-24)
(0.58702429 -0.01158228 -5.3809612e-22)
(0.59758777 -0.010900508 -8.9515441e-23)
(0.60796584 -0.01025914 -3.4985884e-22)
(0.61815805 -0.00965909 -4.6778288e-22)
(0.6281945 -0.0090982495 4.0580646e-22)
(0.63802776 -0.0085863193 1.592735e-23)
(0.64785552 -0.0081007169 2.0156351e-22)
(0.65719346 -0.0077280251 -1.5538069e-22)
(0.66755719 -0.0072402916 -3.0318855e-22)
(0.67485731 -0.0073921349 -2.468778e-23)
(0.6905217 -0.0062870512 4.7997987e-22)
(0.25484887 -0.036598005 -2.0914739e-20)
(0.25464258 -0.041441835 4.7613074e-20)
(0.25925657 -0.044797232 1.0353566e-20)
(0.26527964 -0.046496465 -1.577588e-20)
(0.27091764 -0.04777146 -2.0264008e-21)
(0.2767417 -0.048807662 2.6226907e-21)
(0.28307161 -0.049476307 -1.6645772e-21)
(0.28982836 -0.049793312 -4.6897491e-21)
(0.29696435 -0.049829197 -4.0191816e-21)
(0.30449061 -0.049627313 -1.221796e-20)
(0.31240582 -0.049214386 1.7917864e-20)
(0.32069271 -0.048615888 6.5311255e-21)
(0.32933131 -0.047856395 -1.6796085e-20)
(0.33830067 -0.046957759 1.0321138e-20)
(0.34757749 -0.04593933 8.3864203e-21)
(0.35713646 -0.044818625 -8.7315485e-22)
(0.36695111 -0.043611667 -3.1205609e-21)
(0.37699425 -0.04233316 -3.8310864e-21)
(0.38723834 -0.040996626 -1.3944805e-21)
(0.39765582 -0.039614535 -1.2353865e-21)
(0.40821936 -0.038198404 -3.0369905e-21)
(0.41890216 -0.036758858 0)
(0.42967813 -0.035305682 -1.351077e-21)
(0.4405221 -0.033847848 3.9403711e-21)
(0.45140998 -0.032393538 5.4253028e-21)
(0.46231885 -0.030950167 -9.4262779e-22)
(0.47322714 -0.029524392 -2.9473204e-21)
(0.48411466 -0.028122136 3.0504374e-21)
(0.49496268 -0.026748603 2.4791499e-22)
(0.50575399 -0.025408304 3.4633643e-21)
(0.51647293 -0.024105089 -5.3620146e-22)
(0.5271054 -0.022842178 1.7310837e-21)
(0.53763888 -0.021622204 -8.100909e-22)
(0.54806242 -0.020447258 2.9926887e-22)
(0.55836663 -0.019318937 -4.4355018e-22)
(0.5685437 -0.018238398 5.6974548e-22)
(0.5785874 -0.017206416 4.676964e-22)
(0.58849309 -0.016223448 3.9266632e-22)
(0.59825768 -0.015289707 -9.868867e-22)
(0.60788007 -0.0144052 7.0619376e-22)
(0.61736005 -0.013569991 -3.8294733e-22)
(0.62670237 -0.012783767 -1.1569321e-21)
(0.6359053 -0.012047845 1.4869192e-21)
(0.64499664 -0.011359718 -6.509278e-23)
(0.65392985 -0.010731739 -1.7091631e-22)
(0.66289261 -0.010135743 -8.6204579e-24)
(0.67142391 -0.0096800953 -1.4794945e-22)
(0.68095659 -0.0090810001 -5.2287217e-22)
(0.68763671 -0.0092743999 8.6632387e-22)
(0.702178 -0.0079177022 -4.6468338e-23)
(0.37655717 -0.038424157 -1.7507337e-20)
(0.37192498 -0.044329458 1.2838151e-20)
(0.37309286 -0.048224258 2.9803917e-21)
(0.37614867 -0.050164636 -7.6403717e-21)
(0.37855626 -0.051738829 1.2064132e-20)
(0.38098722 -0.053114329 7.7970166e-21)
(0.38395443 -0.054105066 -1.2654625e-20)
(0.38739404 -0.054711139 -6.0726254e-21)
(0.39123868 -0.05499899 1.2707406e-20)
(0.39550883 -0.055011017 -1.532323e-20)
(0.40021868 -0.054774246 -1.4074985e-20)
(0.40535867 -0.054314187 1.4149363e-20)
(0.41091261 -0.05365596 6.8258873e-21)
(0.41686286 -0.05282299 -4.2180477e-21)
(0.4231889 -0.051836784 -1.8497782e-21)
(0.42986735 -0.050717245 -4.0555604e-21)
(0.43687294 -0.049482943 5.3028095e-21)
(0.44417927 -0.048151251 3.6722386e-21)
(0.45175924 -0.046738414 -3.2426063e-21)
(0.45958543 -0.045259605 3.1416056e-21)
(0.46763049 -0.04372898 2.7741852e-21)
(0.4758674 -0.042159715 -3.2195398e-21)
(0.48426973 -0.040564022 3.7113177e-22)
(0.49281188 -0.038953166 -3.2618754e-21)
(0.50146918 -0.037337475 7.2846755e-21)
(0.51021812 -0.035726344 6.1347629e-21)
(0.5190364 -0.034128253 8.1895531e-22)
(0.52790305 -0.032550779 -1.7762741e-21)
(0.53679849 -0.031000617 3.7352262e-21)
(0.54570459 -0.029483609 7.2508624e-21)
(0.55460468 -0.028004782 2.3198513e-21)
(0.56348362 -0.026568384 3.3514853e-21)
(0.57232774 -0.025177939 2.0151685e-21)
(0.58112491 -0.023836299 7.5636558e-22)
(0.58986451 -0.022545709 -2.6525123e-22)
(0.59853743 -0.021307864 2.7682566e-21)
(0.60713608 -0.020123991 6.3180929e-22)
(0.61565444 -0.018994914 3.0065629e-22)
(0.62408799 -0.017921158 5.7293495e-23)
(0.63243416 -0.016902983 1.0238966e-21)
(0.64069127 -0.01594071 4.8023556e-23)
(0.64886245 -0.015034196 4.6412063e-22)
(0.65694469 -0.014185241 -1.3149428e-22)
(0.66496323 -0.013391067 -2.9647273e-22)
(0.67287279 -0.012666577 -1.6369385e-22)
(0.68084944 -0.011978612 -4.6044277e-22)
(0.6884597 -0.011455247 1.8621505e-22)
(0.69703947 -0.010763255 -1.4101394e-22)
(0.7030107 -0.010996696 -4.9277276e-22)
(0.71625468 -0.0094309685 2.5801469e-22)
(0.50951447 -0.036040035 3.6461547e-21)
(0.49977988 -0.043029823 -1.8966053e-20)
(0.49653534 -0.047456095 -2.3103158e-21)
(0.49582748 -0.049812754 5.489853e-21)
(0.49445352 -0.051897418 3.0563996e-21)
(0.49299266 -0.053788223 -4.6591293e-23)
(0.4921229 -0.055273872 6.1980239e-21)
(0.49183969 -0.056354989 7.6318863e-21)
(0.49205231 -0.057083449 9.8644464e-21)
(0.49276778 -0.057491773 -1.1260408e-20)
(0.49400555 -0.057605743 -2.1602457e-20)
(0.49576082 -0.057451064 -3.9429438e-21)
(0.49801745 -0.057052954 1.5956811e-20)
(0.50075677 -0.05643599 1.2824074e-20)
(0.50395774 -0.055623867 -5.9090816e-21)
(0.50759638 -0.054639144 1.3766398e-21)
(0.51164657 -0.053503275 -3.6706625e-21)
(0.51608091 -0.052236674 2.259338e-21)
(0.52087122 -0.050858703 -2.915754e-22)
(0.52598899 -0.049387644 -1.8694245e-21)
(0.53140569 -0.047840694 7.8495783e-21)
(0.53709313 -0.046233962 -2.9751926e-22)
(0.54302369 -0.044582457 4.2286494e-22)
(0.54917055 -0.042900082 -6.5313098e-22)
(0.55550784 -0.041199629 -4.3172012e-21)
(0.5620108 -0.039492778 4.2237555e-21)
(0.56865591 -0.037790106 1.9065549e-21)
(0.57542092 -0.036101103 -3.3225461e-21)
(0.582285 -0.034434192 -4.1250759e-21)