/*--------------------------------*- C++ -*----------------------------------*\
  =========                 |
  \\      /  F ield         | OpenFOAM: The Open Source CFD Toolbox
   \\    /   O peration     | Website:  https://openfoam.org
    \\  /    A nd           | Version:  6
     \\/     M anipulation  |
\*---------------------------------------------------------------------------*/
FoamFile
{
    version     2.0;
    format      ascii;
    class       volScalarField;
    location    "51";
    object      p;
}
// * * * * * * * * * * * * * * * * * * * * * * * * * * * * * * * * * * * * * //

dimensions      [0 2 -2 0 0 0 0];

internalField   nonuniform List<scalar> 
9200
(
-0.38504814
-0.3736648
-0.36353963
-0.35456365
-0.34579859
-0.33725801
-0.32902007
-0.32105165
-0.31328467
-0.30564642
-0.29806314
-0.29046506
-0.2827934
-0.27500768
-0.26709632
-0.25909452
-0.25107881
-0.24313751
-0.23629289
-0.23482101
-0.40295676
-0.38911783
-0.37704579
-0.36654758
-0.35640815
-0.34660843
-0.33721684
-0.32816929
-0.31936532
-0.31070563
-0.30209622
-0.29345415
-0.28471528
-0.27584019
-0.2668198
-0.25767936
-0.24844936
-0.23913038
-0.23040344
-0.22443002
-0.42128135
-0.40496472
-0.39099244
-0.37904299
-0.36758472
-0.35654766
-0.3459787
-0.33577508
-0.32580199
-0.31593763
-0.30607697
-0.29613748
-0.28606598
-0.27584171
-0.26547618
-0.25500877
-0.24447919
-0.2338974
-0.2236618
-0.21488522
-0.43958604
-0.42081159
-0.40500508
-0.39166625
-0.37890921
-0.36659663
-0.35474607
-0.34321564
-0.33184434
-0.3205034
-0.3090978
-0.29756934
-0.28589976
-0.27410843
-0.26224559
-0.25038207
-0.23858548
-0.22689569
-0.21557992
-0.2053785
-0.45723845
-0.43611019
-0.41858683
-0.40393577
-0.38988915
-0.37623155
-0.36295114
-0.34987777
-0.33684501
-0.3237445
-0.3105212
-0.2971696
-0.28372948
-0.27027587
-0.25690549
-0.24372238
-0.23081759
-0.21825032
-0.20620886
-0.19520069
-0.47341126
-0.45013889
-0.43107492
-0.41520093
-0.39985742
-0.38475111
-0.36985338
-0.35499178
-0.34002888
-0.32491336
-0.30966314
-0.29435014
-0.27908575
-0.26400257
-0.24923603
-0.23490912
-0.22111716
-0.20791638
-0.19543286
-0.18400372
-0.48709632
-0.46200849
-0.44164176
-0.42464464
-0.4079831
-0.39130202
-0.37458416
-0.35769582
-0.34057332
-0.32326193
-0.30588075
-0.2885928
-0.27158
-0.25501944
-0.23906463
-0.2238341
-0.20940382
-0.1958049
-0.18310416
-0.17150312
-0.49712679
-0.47068589
-0.44932759
-0.43133056
-0.41333634
-0.39496224
-0.3762454
-0.35714338
-0.33771491
-0.31813681
-0.29864656
-0.27949764
-0.26092759
-0.24313446
-0.22626371
-0.2104054
-0.19559661
-0.18182889
-0.16911097
-0.15753019
-0.50215751
-0.47489269
-0.45284301
-0.43391932
-0.4145377
-0.39435042
-0.37350931
-0.35212067
-0.33040518
-0.3086866
-0.28731392
-0.26660817
-0.24683147
-0.22817136
-0.2107389
-0.19457706
-0.17967335
-0.16597565
-0.15343851
-0.1420515
-0.50083573
-0.4732092
-0.45063716
-0.43074219
-0.40986235
-0.38776885
-0.36479392
-0.34123834
-0.31749834
-0.29402739
-0.27124834
-0.24950401
-0.22903818
-0.20999487
-0.19243036
-0.17633205
-0.16163841
-0.14825939
-0.13610267
-0.12507256
-0.27179865
-0.27648635
-0.27900041
-0.279751
-0.27953272
-0.27853299
-0.27683343
-0.27452174
-0.2716702
-0.26833357
-0.2645559
-0.26037469
-0.25582303
-0.250931
-0.24572684
-0.24023948
-0.23449985
-0.2285285
-0.22232437
-0.21597339
-0.27454255
-0.278813
-0.28101901
-0.28155014
-0.28114822
-0.27999189
-0.27816084
-0.27573903
-0.27279518
-0.26938118
-0.26553867
-0.26130302
-0.25670544
-0.25177398
-0.24653428
-0.24101424
-0.23525229
-0.22926736
-0.22295143
-0.21627813
-0.2798935
-0.28334814
-0.28495366
-0.28505555
-0.28429362
-0.28283099
-0.28074378
-0.27810868
-0.2749874
-0.2714262
-0.26746187
-0.26312554
-0.25844464
-0.25344335
-0.24814246
-0.24256697
-0.23676678
-0.23075971
-0.22424499
-0.21696275
-0.28760983
-0.28989684
-0.29063337
-0.29010435
-0.2888079
-0.28688743
-0.28441507
-0.28145758
-0.27806698
-0.27428165
-0.27013147
-0.26564146
-0.2608335
-0.25572604
-0.25033304
-0.2446743
-0.23881165
-0.23276761
-0.22599432
-0.21785981
-0.29738708
-0.29821444
-0.29784525
-0.29649622
-0.29449578
-0.29196644
-0.28897715
-0.28558328
-0.28182541
-0.27773263
-0.27332652
-0.26862381
-0.2636388
-0.258383
-0.25286223
-0.24708786
-0.24112961
-0.23502332
-0.22796187
-0.21879609
-0.30890941
-0.30804718
-0.30637061
-0.3040291
-0.30116459
-0.2978801
-0.29424358
-0.29029937
-0.28607596
-0.28159074
-0.27685444
-0.27187448
-0.26665629
-0.26120292
-0.25551101
-0.24958057
-0.24348118
-0.23726815
-0.22990389
-0.21960143
-0.3218963
-0.31916885
-0.31601784
-0.31253257
-0.30865992
-0.3044866
-0.30008348
-0.29548343
-0.29070018
-0.28573856
-0.28059776
-0.27527383
-0.26976156
-0.26405435
-0.25813971
-0.25200579
-0.24571484
-0.23934474
-0.23169132
-0.22026235
-0.33613076
-0.33140368
-0.32664456
-0.32189247
-0.31689506
-0.3117257
-0.3064585
-0.30111406
-0.29569129
-0.29018049
-0.2845664
-0.27883069
-0.2729544
-0.26691877
-0.26070152
-0.25428184
-0.24771908
-0.24113706
-0.23328473
-0.22096182
-0.35145927
-0.34461891
-0.33814017
-0.33202208
-0.32580571
-0.31954982
-0.31333363
-0.30716494
-0.30102492
-0.29488614
-0.28871527
-0.28247541
-0.27612835
-0.26963488
-0.26295021
-0.25602609
-0.24888636
-0.24163727
-0.23302448
-0.21954382
-0.36778281
-0.35870658
-0.35039222
-0.34280365
-0.33526196
-0.32781102
-0.32053507
-0.31342676
-0.30644702
-0.29954898
-0.29268091
-0.28578903
-0.27882047
-0.2717233
-0.26444135
-0.25690996
-0.24907184
-0.24072073
-0.23020868
-0.21449527
-0.20877091
-0.1997559
-0.1907329
-0.1817667
-0.17280329
-0.16388453
-0.15506445
-0.1463785
-0.13785631
-0.12952682
-0.1214162
-0.11354696
-0.10593853
-0.098607545
-0.091567816
-0.08483042
-0.078403794
-0.072293839
-0.066504009
-0.061035423
-0.055886986
-0.051055522
-0.046535927
-0.042321333
-0.038403283
-0.034771917
-0.031416163
-0.028323937
-0.025482331
-0.022877805
-0.020496373
-0.018323772
-0.01634563
-0.014547615
-0.01291557
-0.011435649
-0.010094443
-0.0088790613
-0.0077774047
-0.0067778378
-0.0058709492
-0.0050448483
-0.0043012613
-0.0036082247
-0.0030464494
-0.0023810812
-0.0023259638
-0.00091871632
-0.0038994729
0.0046291811
-0.20979453
-0.20038002
-0.19124763
-0.18229635
-0.17331511
-0.16436619
-0.15552173
-0.14681356
-0.13826881
-0.12991698
-0.12178453
-0.11389386
-0.10626437
-0.098912786
-0.091852981
-0.085096097
-0.078650638
-0.072522564
-0.066715387
-0.061230267
-0.056066142
-0.051219862
-0.046686334
-0.042458693
-0.038528478
-0.034885814
-0.031519611
-0.028417759
-0.025567317
-0.022954713
-0.020565922
-0.018386642
-0.016402459
-0.014598996
-0.012962057
-0.011477751
-0.010132626
-0.0089137517
-0.0078089859
-0.0068066518
-0.0058972946
-0.0050689816
-0.0043233649
-0.0036284968
-0.003064669
-0.002397992
-0.0023381783
-0.0009346442
-0.0038862833
0.0045835233
-0.21193961
-0.20166986
-0.19231939
-0.18343831
-0.17443407
-0.16542457
-0.15653266
-0.14778065
-0.13918893
-0.1307892
-0.12260916
-0.11467109
-0.10699453
-0.099596516
-0.092491231
-0.085690037
-0.079201652
-0.073032228
-0.067185432
-0.061662554
-0.056462626
-0.05158256
-0.047017303
-0.042760002
-0.038802184
-0.035133944
-0.031744144
-0.028620609
-0.025750326
-0.023119636
-0.020714423
-0.018520287
-0.016522713
-0.014707224
-0.013059519
-0.011565604
-0.010211928
-0.0089854604
-0.0078739628
-0.0068656612
-0.0059510032
-0.0051179571
-0.0043680272
-0.0036692617
-0.0031011722
-0.0024316393
-0.0023624482
-0.00096596296
-0.0038598479
0.0044929107
-0.21504335
-0.20339003
-0.19371774
-0.18503855
-0.17604628
-0.16696042
-0.15801483
-0.14921435
-0.14056388
-0.13210027
-0.12385497
-0.11585033
-0.10810616
-0.10064037
-0.093467866
-0.086600531
-0.080047555
-0.073815506
-0.067908396
-0.062327787
-0.057072923
-0.052140873
-0.047526683
-0.043223554
-0.039223026
-0.035515169
-0.032088788
-0.028931625
-0.026030561
-0.023371814
-0.02094113
-0.018723962
-0.01670564
-0.014871528
-0.013207165
-0.011698398
-0.010331518
-0.0090933382
-0.0079714696
-0.0069539853
-0.0060311812
-0.0051908702
-0.0044343329
-0.0037295996
-0.003155029
-0.0024811021
-0.0023978676
-0.0010117336
-0.003819883
0.0043590476
-0.21887366
-0.20526555
-0.19516906
-0.18689505
-0.17800125
-0.16884214
-0.15985434
-0.1510222
-0.14231884
-0.13378832
-0.1254707
-0.11738948
-0.10956491
-0.10201636
-0.094760129
-0.087809167
-0.081173515
-0.074860494
-0.068874749
-0.063218355
-0.057890959
-0.052889938
-0.04821056
-0.043846172
-0.039788387
-0.036027292
-0.032551656
-0.029349142
-0.026406513
-0.023709843
-0.021244706
-0.018996369
-0.016949962
-0.015090638
-0.013403727
-0.01187486
-0.010490116
-0.0092360984
-0.0081002115
-0.0070703218
-0.0061365193
-0.0052864057
-0.0045209616
-0.0038081885
-0.0032249178
-0.0025450595
-0.0024431963
-0.0010705364
-0.0037662788
0.0041846632
-0.2230765
-0.20701175
-0.19640024
-0.18876978
-0.18012194
-0.17092208
-0.16191496
-0.15308615
-0.14435721
-0.13577366
-0.12738948
-0.11923272
-0.11132461
-0.10368642
-0.096336717
-0.089290244
-0.082558482
-0.076149977
-0.070070415
-0.064322735
-0.058907278
-0.053821962
-0.049062471
-0.044622443
-0.040493685
-0.036666382
-0.033129324
-0.029870127
-0.026875454
-0.024131226
-0.021622835
-0.019335332
-0.017253609
-0.015362572
-0.013647289
-0.012093128
-0.010685904
-0.0094119581
-0.0082584357
-0.0072129431
-0.0062653106
-0.0054028748
-0.0046262388
-0.0039033704
-0.0033091968
-0.0026218847
-0.0024969279
-0.0011406405
-0.003699014
0.0039732904
-0.22724736
-0.20844416
-0.19719717
-0.19038085
-0.18220319
-0.17306917
-0.16407781
-0.1552902
-0.1465794
-0.13797488
-0.12954304
-0.12132187
-0.11333599
-0.10560901
-0.098162482
-0.091013928
-0.084177066
-0.077662282
-0.071476833
-0.065624967
-0.060108094
-0.054924987
-0.050071989
-0.045543236
-0.041330878
-0.037425319
-0.033815455
-0.030488913
-0.027432284
-0.024631356
-0.022071329
-0.019737025
-0.017613072
-0.01568409
-0.013934847
-0.012350403
-0.01091626
-0.0096184484
-0.0084438046
-0.0073796234
-0.0064154245
-0.0055382279
-0.0047481822
-0.0040132259
-0.0034059987
-0.0027097668
-0.0025574036
-0.0012201992
-0.0036181346
0.0037290162
-0.23111793
-0.20995662
-0.19778479
-0.19153979
-0.18402819
-0.17519337
-0.16629689
-0.15757574
-0.14892093
-0.14033379
-0.13187965
-0.12360919
-0.11555483
-0.10774376
-0.10020087
-0.092947248
-0.085999638
-0.079370899
-0.073070363
-0.06710403
-0.061474757
-0.056182486
-0.051224485
-0.046595598
-0.042288496
-0.038293935
-0.03460102
-0.031197463
-0.028069835
-0.025203817
-0.022584431
-0.020196261
-0.01802366
-0.016050934
-0.014262519
-0.012643129
-0.011177913
-0.0098525443
-0.0086535062
-0.0075677353
-0.0065843915
-0.0056901325
-0.0048845746
-0.0041356457
-0.0035133039
-0.0028067879
-0.0026228922
-0.0013073652
-0.003523752
0.0034564396
-0.23233543
-0.21178416
-0.19885318
-0.19217994
-0.18515833
-0.17690994
-0.16829424
-0.15970566
-0.151161
-0.14265383
-0.13423216
-0.12595437
-0.11786406
-0.10999426
-0.10237385
-0.095028052
-0.087977505
-0.081238372
-0.074822795
-0.068739195
-0.062992483
-0.057584311
-0.052513341
-0.047775533
-0.043364419
-0.039271392
-0.035485998
-0.031996214
-0.028788733
-0.025849232
-0.023162624
-0.020713302
-0.018485361
-0.016462799
-0.014629707
-0.012970429
-0.011469727
-0.010112882
-0.0088859778
-0.0077755472
-0.0067703413
-0.005856606
-0.0050333502
-0.0042684992
-0.0036289752
-0.0029107403
-0.0026915319
-0.0013995705
-0.0034166356
0.0031617346
-0.22243787
-0.21100232
-0.19995263
-0.19181803
-0.18471164
-0.17724326
-0.16923962
-0.16102214
-0.15277009
-0.14450971
-0.13626905
-0.12810606
-0.12007668
-0.11222427
-0.10458504
-0.097190922
-0.090068888
-0.083240674
-0.076723189
-0.070528933
-0.064666287
-0.059139809
-0.053950556
-0.049096427
-0.044572494
-0.040371333
-0.036483364
-0.032897174
-0.029599836
-0.026577214
-0.02381425
-0.021295237
-0.019004064
-0.016924446
-0.015040126
-0.013335062
-0.011793601
-0.010400584
-0.0091416554
-0.0080028869
-0.0069725697
-0.006036477
-0.0051929497
-0.0044098604
-0.0037509094
-0.003019043
-0.0027614922
-0.0014924131
-0.0032998214
0.0028533195
-0.20030269
-0.20492318
-0.19959611
-0.19065202
-0.18310371
-0.17604405
-0.16848803
-0.16057175
-0.15256116
-0.14451967
-0.13646717
-0.12845699
-0.12054886
-0.11279051
-0.10522136
-0.097876256
-0.090785172
-0.083972652
-0.07745814
-0.071256419
-0.065377916
-0.059828998
-0.054612312
-0.049727128
-0.045169697
-0.040933596
-0.037010078
-0.033388415
-0.030056232
-0.026999826
-0.024204467
-0.021654685
-0.019334528
-0.017227801
-0.015318284
-0.013589919
-0.012027001
-0.010614284
-0.0093372906
-0.0081819567
-0.0071363462
-0.0061861395
-0.0053289075
-0.0045334956
-0.0038585483
-0.0031187021
-0.0028209703
-0.0015840029
-0.0031723017
0.0025442824
-0.18967229
-0.19539771
-0.19187568
-0.18310897
-0.17586728
-0.16956434
-0.1628146
-0.15561832
-0.148271
-0.14084787
-0.13335905
-0.12585351
-0.11839338
-0.11103007
-0.10380653
-0.096761413
-0.089928729
-0.083337029
-0.0770096
-0.070964874
-0.065216708
-0.059774662
-0.054644326
-0.049827677
-0.045323424
-0.041127374
-0.037232787
-0.033630729
-0.030310417
-0.027259552
-0.024464634
-0.021911258
-0.019584387
-0.017468605
-0.015548347
-0.013808098
-0.012232594
-0.010806941
-0.0095169191
-0.0083486834
-0.0072903011
-0.0063277716
-0.0054576821
-0.004651106
-0.0039590491
-0.0032146106
-0.0028684339
-0.0016823752
-0.0030066557
0.0022084682
-0.18084246
-0.1839693
-0.18164484
-0.17460566
-0.16822237
-0.16261841
-0.15664051
-0.15017984
-0.14350213
-0.13670256
-0.12979339
-0.1228174
-0.11583542
-0.10890067
-0.10205817
-0.095348944
-0.08880989
-0.082472763
-0.076364142
-0.070505747
-0.064914661
-0.059603559
-0.054580995
-0.049851729
-0.045417066
-0.041275207
-0.0374216
-0.033849299
-0.030549309
-0.027510926
-0.024722063
-0.022169551
-0.019839429
-0.017717207
-0.015788102
-0.014037259
-0.012449954
-0.011011735
-0.009708706
-0.0085273067
-0.0074556363
-0.0064800843
-0.0055961439
-0.0047774445
-0.004066361
-0.0033169641
-0.0029162203
-0.0017881946
-0.0028150182
0.0018358208
-0.17106349
-0.17159139
-0.16971404
-0.16475476
-0.15960755
-0.15475142
-0.14956959
-0.14392587
-0.13799645
-0.13188222
-0.12561126
-0.11922436
-0.11277884
-0.10632849
-0.099920174
-0.093596872
-0.087397957
-0.081358131
-0.075507156
-0.069870029
-0.064467141
-0.059314429
-0.054423609
-0.04980246
-0.045455139
-0.041382506
-0.037582469
-0.034050333
-0.030779145
-0.027760039
-0.024982563
-0.022434992
-0.020104628
-0.017978072
-0.016041476
-0.014280775
-0.012681896
-0.011230924
-0.0099143658
-0.0087190103
-0.0076330334
-0.0066432496
-0.0057440538
-0.0049116738
-0.0041796292
-0.0034234618
-0.0029644724
-0.0018943542
-0.0026090538
0.0014426309
-0.16038363
-0.15904858
-0.1571981
-0.1539544
-0.15010444
-0.14605796
-0.1416775
-0.13688256
-0.13175505
-0.12637757
-0.1207941
-0.11504824
-0.10919296
-0.1032807
-0.097359191
-0.091472678
-0.085662265
-0.079965024
-0.074413526
-0.069035829
-0.063855535
-0.058891856
-0.05415977
-0.049670245
-0.0454305
-0.041444299
-0.037712275
-0.034232254
-0.030999596
-0.028007533
-0.025247498
-0.022709447
-0.020382158
-0.018253521
-0.016310798
-0.014540866
-0.012930442
-0.011466262
-0.010135333
-0.0089248682
-0.0078231875
-0.0068175558
-0.0059013323
-0.0050532457
-0.0042981573
-0.003532535
-0.0030129191
-0.0019969792
-0.0023965572
0.0010419301
-0.14848587
-0.14637653
-0.14464711
-0.14267724
-0.1400003
-0.1367939
-0.13320438
-0.12923776
-0.12491526
-0.12029221
-0.11541949
-0.11034237
-0.10510997
-0.099772236
-0.09437644
-0.088966999
-0.083585644
-0.078270837
-0.073057195
-0.067975256
-0.063051402
-0.058307837
-0.053762645
-0.049429924
-0.045319989
-0.04143961
-0.037792287
-0.03437855
-0.031196278
-0.028241017
-0.025506308
-0.022983999
-0.020664557
-0.018537356
-0.01659095
-0.014813324
-0.013192133
-0.011714891
-0.010369221
-0.0091428493
-0.0080243254
-0.007001392
-0.0060664889
-0.0052006558
-0.0044206253
-0.0036424522
-0.0030612251
-0.0020930432
-0.0021857285
0.00064719995
-0.13568744
-0.13372052
-0.13234518
-0.13128694
-0.12957471
-0.12718111
-0.12435514
-0.12117022
-0.11762278
-0.1137419
-0.10957768
-0.10517631
-0.1005812
-0.095837959
-0.090992411
-0.086088228
-0.081166682
-0.076266485
-0.071423303
-0.066669346
-0.062033117
-0.057539288
-0.053208659
-0.049058203
-0.045101172
-0.041347277
-0.037802894
-0.034471328
-0.031353085
-0.028446171
-0.025746398
-0.023247686
-0.020942371
-0.01882149
-0.016875062
-0.015092346
-0.013462082
-0.011972701
-0.010612565
-0.0093700103
-0.0082339191
-0.0071925413
-0.0062375613
-0.0053520688
-0.0045454943
-0.0037514488
-0.00310914
-0.002179904
-0.0019854722
0.00027280892
-0.12270555
-0.12132697
-0.12044486
-0.12004256
-0.11908665
-0.11743059
-0.11531804
-0.11285282
-0.11002804
-0.10685513
-0.10337627
-0.099635982
-0.09567382
-0.091529321
-0.087244304
-0.082860748
-0.078418706
-0.0739561
-0.069508563
-0.065109015
-0.060787263
-0.056569757
-0.052479446
-0.048535724
-0.044754456
-0.041148062
-0.037725662
-0.034493272
-0.03145403
-0.028608456
-0.025954721
-0.023488941
-0.021205455
-0.019097113
-0.017155552
-0.015371452
-0.013734787
-0.012235039
-0.010861432
-0.0096030207
-0.0084491338
-0.0073885647
-0.006412441
-0.005505607
-0.0046712374
-0.0038579914
-0.0031565535
-0.0022557924
-0.0018042783
-6.7502616e-05
-0.11008206
-0.1093745
-0.10901138
-0.10910369
-0.10873658
-0.10771954
-0.10625069
-0.10443478
-0.10226831
-0.099753263
-0.096921971
-0.093813553
-0.090463426
-0.086906435
-0.083179178
-0.079319694
-0.075365908
-0.071354218
-0.06731928
-0.063293746
-0.059307841
-0.055389004
-0.05156165
-0.04784702
-0.044263116
-0.040824699
-0.037543361
-0.034427642
-0.031483201
-0.028713022
-0.026117648
-0.02369543
-0.021442794
-0.019354506
-0.017423934
-0.015643309
-0.014003966
-0.012496563
-0.01111131
-0.0098380894
-0.008666792
-0.007586803
-0.0065889128
-0.0056594289
-0.0047964403
-0.0039609398
-0.0032035426
-0.0023201322
-0.0016491934
-0.00036229796
-0.098101053
-0.09798197
-0.098089248
-0.098569869
-0.098664802
-0.09818391
-0.097277326
-0.096035835
-0.094458184
-0.092541678
-0.090309524
-0.08779376
-0.085024542
-0.082031793
-0.078847493
-0.075505081
-0.07203868
-0.0684823
-0.064868895
-0.061230006
-0.057595412
-0.053992738
-0.050447134
-0.046981039
-0.043614032
-0.040362748
-0.037240866
-0.03425916
-0.031425594
-0.028745475
-0.026221632
-0.023854625
-0.021642978
-0.01958342
-0.017671127
-0.015899968
-0.014262741
-0.012751391
-0.011357226
-0.010071054
-0.0088834506
-0.0077844489
-0.0067647291
-0.0058118077
-0.0049198868
-0.0040596301
-0.0032503909
-0.0023735737
-0.0015250213
-0.00060384443
-0.086901773
-0.087240111
-0.087731016
-0.088514706
-0.088971023
-0.088928195
-0.088498156
-0.0877537
-0.086693137
-0.085310876
-0.083622463
-0.081652536
-0.079425449
-0.076965836
-0.074300671
-0.071458949
-0.068470597
-0.065366062
-0.062175805
-0.05892956
-0.055655901
-0.052381873
-0.049132633
-0.045931148
-0.042797969
-0.039751075
-0.036805782
-0.03397472
-0.031267862
-0.02869261
-0.026253918
-0.023954454
-0.021794788
-0.019773599
-0.017887894
-0.016133231
-0.014503942
-0.01299334
-0.011593924
-0.010297525
-0.0090955114
-0.0079786304
-0.0069376747
-0.0059611757
-0.0050405942
-0.0041538646
-0.0032975457
-0.0024177998
-0.0014338047
-0.00078905403
-0.076544026
-0.077211275
-0.077989269
-0.078998202
-0.079730009
-0.08003498
-0.079996821
-0.079671637
-0.079055634
-0.078140809
-0.076936369
-0.075459998
-0.073730152
-0.071766118
-0.069589654
-0.067224957
-0.064697704
-0.062034435
-0.059262286
-0.056408488
-0.053499758
-0.05056187
-0.047619298
-0.044694875
-0.041809508
-0.038981957
-0.036228677
-0.033563723
-0.030998717
-0.028542861
-0.026203007
-0.023983761
-0.021887625
-0.019915163
-0.018065184
-0.016334945
-0.014720343
-0.013216114
-0.011816017
-0.010512985
-0.009299282
-0.0081664377
-0.007105567
-0.0061060924
-0.0051577655
-0.0042437908
-0.0033454986
-0.0024551458
-0.0013747051
-0.00091973669
-0.067039343
-0.067928069
-0.068904187
-0.070067115
-0.070998762
-0.071570082
-0.071843813
-0.071862246
-0.071619123
-0.071104304
-0.070321759
-0.069283016
-0.068000936
-0.066489612
-0.064765688
-0.062848417
-0.06075898
-0.05851987
-0.056154544
-0.053687113
-0.051141832
-0.048542603
-0.045912586
-0.04327385
-0.040647048
-0.03805115
-0.035503224
-0.033018283
-0.030609186
-0.028286592
-0.026058964
-0.023932621
-0.021911825
-0.019998907
-0.018194405
-0.016497234
-0.014904856
-0.013413451
-0.012018086
-0.010712854
-0.0094909976
-0.0083449059
-0.0072662043
-0.0062451513
-0.0052706707
-0.004329694
-0.0033946117
-0.0024881137
-0.0013443246
-0.0010020564
-0.058372638
-0.059398535
-0.060498089
-0.06175289
-0.062818512
-0.06358425
-0.064096929
-0.064387881
-0.064448806
-0.064267876
-0.063844836
-0.063186002
-0.062299231
-0.061193813
-0.059881567
-0.058376964
-0.056696615
-0.054858815
-0.052883187
-0.050790377
-0.04860169
-0.046338632
-0.044022501
-0.041674021
-0.039313015
-0.036958098
-0.034626417
-0.032333451
-0.030092853
-0.027916346
-0.025813674
-0.023792591
-0.021858902
-0.020016532
-0.018267629
-0.016612687
-0.015050691
-0.013579255
-0.012194771
-0.010892533
-0.0096668334
-0.008510987
-0.0074172984
-0.0063768652
-0.0053784983
-0.0044117584
-0.003444938
-0.0025188979
-0.0013374171
-0.0010452643
-0.050512872
-0.051611537
-0.052775172
-0.054070736
-0.055214958
-0.056113362
-0.056800622
-0.057299564
-0.057600541
-0.057690658
-0.057566424
-0.057229938
-0.056684828
-0.055936165
-0.054991415
-0.05386061
-0.052555992
-0.051091667
-0.049483348
-0.047748074
-0.045903895
-0.04396952
-0.041963925
-0.039905999
-0.037814203
-0.035706265
-0.033598891
-0.031507523
-0.029446144
-0.027427122
-0.025461106
-0.023556969
-0.021721789
-0.01996087
-0.018277802
-0.016674541
-0.01515151
-0.013707718
-0.012340872
-0.011047482
-0.0098229387
-0.0086615475
-0.0075564335
-0.006499579
-0.0054802323
-0.004489868
-0.0034960966
-0.0025490373
-0.0013478437
-0.0010599816
-0.043418453
-0.044542
-0.045724535
-0.047021049
-0.048199233
-0.04917901
-0.049985868
-0.050636167
-0.051119624
-0.051422928
-0.051540315
-0.051470657
-0.0512142
-0.050772513
-0.05014932
-0.049350719
-0.048384951
-0.047262169
-0.045994255
-0.044594624
-0.043077958
-0.041459917
-0.039756826
-0.037985338
-0.036162111
-0.034303509
-0.032425304
-0.030542421
-0.028668702
-0.026816723
-0.02499764
-0.023221087
-0.021495107
-0.019826126
-0.018218965
-0.016676877
-0.015201609
-0.013793483
-0.012451479
-0.011173317
-0.0099555121
-0.0087934119
-0.0076810771
-0.0066114432
-0.0055745949
-0.0045634997
-0.0035472459
-0.0025792605
-0.0013695486
-0.0010564414
-0.037041787
-0.038155861
-0.039324305
-0.040592293
-0.041769967
-0.042789977
-0.043670973
-0.044424509
-0.045040276
-0.04550514
-0.04581193
-0.045957224
-0.045938738
-0.0457553
-0.045407588
-0.044898375
-0.044232412
-0.043416277
-0.042458288
-0.041368368
-0.040157862
-0.038839307
-0.037426179
-0.035932622
-0.034373153
-0.032762374
-0.0311147
-0.029444087
-0.027763794
-0.026086167
-0.024422458
-0.022782682
-0.021175509
-0.019608191
-0.01808653
-0.016614873
-0.015196132
-0.013831827
-0.012522136
-0.011265953
-0.01006092
-0.0089034583
-0.00778865
-0.0067104567
-0.0056600678
-0.0046317235
-0.0035971569
-0.0026095254
-0.0013973301
-0.0010431039
-0.03133271
-0.032413805
-0.033545228
-0.034764079
-0.035915825
-0.036944286
-0.037863078
-0.038680258
-0.039385961
-0.039967703
-0.040417638
-0.040730874
-0.040903382
-0.040932
-0.040815071
-0.040552707
-0.04014675
-0.039600706
-0.038919717
-0.038110498
-0.037181229
-0.036141391
-0.035001576
-0.033773277
-0.032468645
-0.031100238
-0.029680764
-0.028222834
-0.026738718
-0.025240121
-0.02373799
-0.022242336
-0.020762097
-0.01930503
-0.017877637
-0.016485118
-0.015131354
-0.013818911
-0.012549058
-0.011321794
-0.010135859
-0.0089887556
-0.0078766412
-0.0067945637
-0.0057349769
-0.0046932923
-0.0036443542
-0.0026391969
-0.0014272489
-0.001025927
-0.026240796
-0.027273928
-0.028353494
-0.029509911
-0.030618045
-0.031631441
-0.032560027
-0.033409352
-0.034170318
-0.034831432
-0.035384743
-0.035824566
-0.036145815
-0.036344013
-0.036415844
-0.036359419
-0.036174286
-0.035861433
-0.035423304
-0.0348638
-0.034188229
-0.033403214
-0.032516563
-0.031537115
-0.030474563
-0.029339246
-0.028141928
-0.026893574
-0.025605131
-0.024287304
-0.02295036
-0.021603937
-0.020256885
-0.018917132
-0.017591574
-0.016286
-0.015005032
-0.013752096
-0.012529408
-0.01133797
-0.010177559
-0.0090467399
-0.0079427598
-0.0068617878
-0.0057976164
-0.0047467824
-0.0036872765
-0.0026672771
-0.0014566496
-0.0010083466
-0.021717237
-0.022693963
-0.023713182
-0.024799719
-0.025852935
-0.026834786
-0.027752488
-0.028609808
-0.029398603
-0.030108571
-0.030732073
-0.031263156
-0.03169623
-0.032026077
-0.032248322
-0.032359682
-0.032358009
-0.032242335
-0.032012927
-0.031671327
-0.031220357
-0.030664079
-0.030007731
-0.029257624
-0.028421022
-0.027505991
-0.026521221
-0.02547584
-0.024379216
-0.023240766
-0.022069754
-0.020875111
-0.019665263
-0.018447981
-0.017230248
-0.016018157
-0.014816821
-0.013630315
-0.012461628
-0.011312628
-0.01018404
-0.0090754308
-0.0079851193
-0.0069103955
-0.0058463974
-0.0047907564
-0.0037244212
-0.0026926227
-0.0014839042
-0.0009917911
-0.017715948
-0.018632746
-0.019587993
-0.02060178
-0.021593908
-0.022533574
-0.023425978
-0.024273609
-0.025069355
-0.025804198
-0.026471077
-0.02706415
-0.027577738
-0.02800634
-0.028345019
-0.02858962
-0.028736841
-0.028784293
-0.028730578
-0.028575359
-0.028319401
-0.027964579
-0.027513856
-0.026971241
-0.02634171
-0.025631115
-0.024846053
-0.023993722
-0.023081765
-0.022118095
-0.021110728
-0.020067608
-0.01899644
-0.017904535
-0.016798668
-0.015684953
-0.014568735
-0.013454507
-0.01234583
-0.011245283
-0.01015441
-0.0090736924
-0.0080024603
-0.0069390889
-0.0058800169
-0.0048239328
-0.0037544681
-0.002714119
-0.0015080588
-0.00097642875
-0.014195037
-0.015051919
-0.015943148
-0.016884734
-0.017813574
-0.018705075
-0.019562905
-0.020388621
-0.021176137
-0.021917715
-0.022607023
-0.023238574
-0.023806893
-0.024306532
-0.024732371
-0.025079815
-0.025344862
-0.025524173
-0.025615162
-0.025616076
-0.025526064
-0.025345212
-0.025074563
-0.024716114
-0.024272783
-0.023748362
-0.023147436
-0.022475288
-0.021737773
-0.020941191
-0.02009214
-0.019197368
-0.018263621
-0.017297491
-0.016305276
-0.015292847
-0.01426553
-0.013227996
-0.012184173
-0.011137165
-0.010089187
-0.0090415143
-0.0079943973
-0.0069472227
-0.0058976472
-0.004845361
-0.0037763912
-0.0027308148
-0.0015285442
-0.0009618624
-0.011116877
-0.011916488
-0.01274635
-0.013618931
-0.014485438
-0.015326574
-0.016144821
-0.016941029
-0.017710071
-0.018445424
-0.019141541
-0.019793427
-0.020395995
-0.020944068
-0.021432625
-0.02185695
-0.022212702
-0.022495987
-0.022703439
-0.022832312
-0.022880551
-0.022846856
-0.02273072
-0.022532458
-0.022253215
-0.02189495
-0.021460402
-0.020953037
-0.020376963
-0.019736843
-0.019037779
-0.018285196
-0.017484709
-0.016641995
-0.015762656
-0.014852089
-0.013915367
-0.012957119
-0.011981425
-0.010991728
-0.0099907457
-0.0089804062
-0.007961756
-0.0069350913
-0.0058991744
-0.0048546221
-0.0037895866
-0.0027420431
-0.0015450252
-0.00094761127
-0.0084493661
-0.0091958931
-0.0099687169
-0.010777165
-0.011584421
-0.012375692
-0.013152519
-0.013915193
-0.014659444
-0.015379858
-0.016071659
-0.016730399
-0.01735147
-0.017930101
-0.018461543
-0.018941185
-0.019364615
-0.019727685
-0.020026584
-0.020257925
-0.020418819
-0.020506944
-0.020520604
-0.020458772
-0.020321126
-0.020108066
-0.019820709
-0.019460874
-0.019031041
-0.018534292
-0.017974238
-0.017354935
-0.016680779
-0.015956399
-0.015186539
-0.014375944
-0.013529237
-0.012650804
-0.011744688
-0.010814482
-0.0098632319
-0.0088933661
-0.0079065861
-0.0069039712
-0.0058852572
-0.004851895
-0.0037939127
-0.0027474658
-0.0015573272
-0.00093334011
-0.0061678167
-0.0068670381
-0.0075887716
-0.0083396572
-0.0090928326
-0.0098372816
-0.010573777
-0.011302155
-0.012018885
-0.012719522
-0.013400006
-0.01405643
-0.014684689
-0.015280475
-0.015839403
-0.016357109
-0.016829288
-0.017251754
-0.017620504
-0.017931791
-0.018182196
-0.018368697
-0.018488731
-0.018540255
-0.01852179
-0.018432465
-0.018272034
-0.018040889
-0.017740058
-0.017371178
-0.016936455
-0.016438611
-0.015880813
-0.015266591
-0.014599746
-0.01388425
-0.013124137
-0.012323399
-0.011485872
-0.010615135
-0.0097144041
-0.0087864477
-0.0078334749
-0.006857208
-0.0058582106
-0.0048386601
-0.0037902255
-0.0027474825
-0.0015657093
-0.00091908719
-0.0042477316
-0.0049054587
-0.0055823255
-0.0062825392
-0.0069874524
-0.0076892119
-0.0083879648
-0.0090831613
-0.009771883
-0.010450512
-0.011115612
-0.011763776
-0.012391379
-0.012994572
-0.013569371
-0.014111719
-0.014617523
-0.0150827
-0.015503224
-0.015875193
-0.016194892
-0.016458854
-0.016663925
-0.016807326
-0.01688671
-0.01690021
-0.016846486
-0.016724753
-0.016534803
-0.016277008
-0.015952309
-0.015562194
-0.015108661
-0.014594159
-0.014021527
-0.013393909
-0.012714669
-0.011987295
-0.011215297
-0.010402102
-0.0095509524
-0.0086648142
-0.0077462564
-0.0067975011
-0.005819789
-0.0048159066
-0.0037789373
-0.0027420825
-0.0015699595
-0.00090469806
-0.0026945077
-0.0033184992
-0.0039584971
-0.0046169152
-0.0052816545
-0.0059473499
-0.0066136327
-0.00727964
-0.0079429439
-0.0086005943
-0.0092496743
-0.0098872018
-0.010509973
-0.011114553
-0.011697336
-0.012254585
-0.012782457
-0.01327704
-0.013734389
-0.014150583
-0.014521773
-0.014844244
-0.015114468
-0.015329171
-0.015485387
-0.015580521
-0.015612398
-0.015579309
-0.015480048
-0.015313945
-0.015080881
-0.014781282
-0.014416113
-0.013986847
-0.013495426
-0.0129442
-0.012335863
-0.011673367
-0.010959838
-0.010198473
-0.0093924432
-0.0085447966
-0.0076583376
-0.0067356551
-0.0057785199
-0.0047902053
-0.0037649831
-0.0027348613
-0.0015725826
-0.00089170895
-0.0014650804
-0.0020613589
-0.0026712145
-0.0032953968
-0.0039269336
-0.0045624533
-0.005201187
-0.0058420086
-0.0064828613
-0.0071213158
-0.0077548662
-0.008380873
-0.0089964769
-0.0095985928
-0.010183942
-0.010749076
-0.011290397
-0.011804183
-0.012286617
-0.012733832
-0.01314195
-0.013507137
-0.013825652
-0.014093905
-0.01430852
-0.014466389
-0.014564733
-0.014601158
-0.014573708
-0.014480901
-0.014321766
-0.014095863
-0.013803293
-0.013444694
-0.013021223
-0.012534515
-0.011986635
-0.011380017
-0.01071738
-0.010001647