/*--------------------------------*- C++ -*----------------------------------*\
  =========                 |
  \\      /  F ield         | OpenFOAM: The Open Source CFD Toolbox
   \\    /   O peration     | Website:  https://openfoam.org
    \\  /    A nd           | Version:  6
     \\/     M anipulation  |
\*---------------------------------------------------------------------------*/
FoamFile
{
    version     2.0;
    format      ascii;
    class       surfaceScalarField;
    location    "51";
    object      phi;
}
// * * * * * * * * * * * * * * * * * * * * * * * * * * * * * * * * * * * * * //

dimensions      [0 3 -1 0 0 0 0];

internalField   nonuniform List<scalar> 
18180
(
0.00031982396
-0.00016532826
-0.00015449557
0.0013135951
-0.0013757984
0.00038202734
0.0030428853
-0.0033516185
0.0016223285
0.0055678416
-0.006005368
0.0034804118
0.0089469038
-0.0092821234
0.0059030614
0.01323479
-0.013138349
0.0088504636
0.018479808
-0.017536462
0.012291443
0.024720861
-0.022442082
0.016201029
0.031984266
-0.027820899
0.020557494
0.040280661
-0.033636036
0.025339642
0.049602303
-0.039846303
0.030524661
0.059921141
-0.046405271
0.036086433
0.071188064
-0.053261201
0.041994278
0.083333783
-0.06035782
0.048212101
0.096271958
-0.067636052
0.054697877
0.10990509
-0.075036814
0.061403683
0.1241326
-0.082504719
0.068277207
0.13886612
-0.089992387
0.075258872
0.1541031
-0.097482363
0.08224538
-0.10497219
0.089034433
0.17004086
0.00039874338
-0.00056407155
0.001614525
-0.0025915799
0.0037004409
-0.0054375343
0.0067073233
-0.0090122503
0.010681859
-0.013256659
0.015662895
-0.018119385
0.021677397
-0.023550964
0.028736464
-0.029501149
0.036831668
-0.035916103
0.045932159
-0.042736527
0.055982931
-0.049897075
0.066904645
-0.057326985
0.078595217
-0.064951774
0.090933288
-0.072695892
0.10378334
-0.080486105
0.11700187
-0.088255338
0.13044361
-0.095946462
0.14396841
-0.10351719
0.15744014
-0.1109541
-0.11818802
0.17065597
0.00048201403
-0.0010460855
0.0019241117
-0.0040336775
0.0043645315
-0.0078779539
0.007837818
-0.012485537
0.012370548
-0.017789388
0.017975887
-0.023724724
0.024648483
-0.030223561
0.032360179
-0.037212844
0.041056978
-0.044612901
0.050657767
-0.052337316
0.061055166
-0.060294474
0.072118661
-0.068390479
0.083699908
-0.076533021
0.095639784
-0.084635768
0.10777643
-0.092622751
0.11995323
-0.10043214
0.13202551
-0.10801874
0.14386398
-0.11535566
0.15534716
-0.12243728
-0.12921408
0.16637323
0.00056768763
-0.001613773
0.0022337417
-0.0056997314
0.0050133221
-0.010657534
0.0089160699
-0.016388284
0.013938793
-0.022812112
0.020058562
-0.029844492
0.027227352
-0.037392351
0.035368715
-0.045354207
0.044376915
-0.053621101
0.054118917
-0.062079319
0.064439258
-0.070614815
0.075167456
-0.079118677
0.08612726
-0.087492825
0.097146742
-0.095655249
0.10806807
-0.10354408
0.11875583
-0.1111199
0.12910303
-0.11836594
0.13903369
-0.12528633
0.14849961
-0.13190319
-0.13821645
0.15750198
0.0006525018
-0.0022662747
0.002530387
-0.0075776165
0.0056166487
-0.013743796
0.0098866293
-0.020658265
0.015297611
-0.028223093
0.021781271
-0.036328152
0.029239414
-0.044850494
0.037543171
-0.053657964
0.0465359
-0.06261383
0.05603966
-0.071583079
0.065864627
-0.080439781
0.075820368
-0.089074418
0.085727629
-0.097400086
0.095429164
-0.10535678
0.10479834
-0.11291325
0.11374464
-0.1200662
0.12221574
-0.12683705
0.13019624
-0.13326682
0.13770312
-0.13941007
-0.14531112
0.14479778
0.00073230724
-0.0029985818
0.0027982005
-0.0096435096
0.0061394695
-0.017085065
0.010688195
-0.02520699
0.016353849
-0.033888747
0.023016459
-0.042990762
0.030525022
-0.052359057
0.038700743
-0.061833684
0.047344712
-0.0712578
0.05624906
-0.080487426
0.065210053
-0.089400775
0.074041346
-0.09790571
0.082585554
-0.10594429
0.090722733
-0.11349396
0.09837481
-0.12056533
0.10550582
-0.1271972
0.11211843
-0.13344967
0.11824784
-0.13939622
0.12395412
-0.14511636
-0.15068157
0.12932458
0.00080240747
-0.0038009891
0.0030198964
-0.011860998
0.0065452122
-0.02061038
0.011260044
-0.029921821
0.017020869
-0.039649572
0.023654463
-0.049624357
0.030960468
-0.059665062
0.038719563
-0.069592779
0.046705888
-0.079244126
0.054701719
-0.088483257
0.062512073
-0.097211129
0.069977008
-0.10537065
0.076979939
-0.11294723
0.083451034
-0.11996506
0.089365713
-0.12648001
0.094738993
-0.13257048
0.099617104
-0.13832778
0.10406797
-0.14384709
0.10817215
-0.14922054
-0.15452947
0.11202005
0.00085768267
-0.0046586717
0.0031776924
-0.014181008
0.0067985076
-0.024231195
0.011547541
-0.034670855
0.017227504
-0.045329534
0.023615847
-0.0560127
0.030472373
-0.066521587
0.037552219
-0.076672625
0.04462174
-0.086313646
0.051474414
-0.095335932
0.057944004
-0.10368072
0.063912951
-0.11133959
0.069315012
-0.11834929
0.0741323
-0.12478235
0.078387811
-0.13073552
0.082135135
-0.13631781
0.085447284
-0.14163993
0.088406357
-0.14680616
0.091095324
-0.15190951
-0.15702826
0.093594109
0.00089177136
-0.0055504428
0.0032533526
-0.016542589
0.0068674441
-0.027845287
0.011507301
-0.039310712
0.01692595
-0.050748183
0.02286069
-0.06194744
0.029045676
-0.072706573
0.035228466
-0.082855415
0.041187087
-0.092272268
0.046744286
-0.10089313
0.05177639
-0.10871282
0.05621563
-0.11577883
0.060046122
-0.12217978
0.063294892
-0.12803112
0.066019968
-0.13346059
0.068297773
-0.13859561
0.070211707
-0.14355386
0.071843289
-0.14843774
0.073266429
-0.15333265
-0.15830642
0.074544596
0.00090115567
-0.0064515984
0.0032377069
-0.01887914
0.0067371899
-0.031344769
0.01112264
-0.043696162
0.016106174
-0.055731717
0.0213985
-0.067239766
0.026725306
-0.07803338
0.031845126
-0.087975234
0.036564728
-0.09699187
0.040748873
-0.10507727
0.044322851
-0.1122868
0.047267913
-0.11872389
0.049611167
-0.12452303
0.051412301
-0.12983225
0.05274965
-0.13479794
0.053707724
-0.13955369
0.054367624
-0.14421376
0.054800947
-0.14887107
0.055066995
-0.1535987
0.055211714
-0.15845114
-0.00020303936
0.00020303943
-1.8289124e-11
-0.00067986256
0.00047682333
-6.2263635e-11
-0.001346467
0.00066660457
-9.4913747e-11
-0.0021384927
0.00079202598
-1.2497725e-10
-0.0030041718
0.00086567933
-1.4861279e-10
-0.0039012241
0.00089705254
-1.7362993e-10
-0.0047946121
0.00089338825
-1.9132174e-10
-0.0056546625
0.00086005071
-2.1278202e-10
-0.0064555884
0.00080092629
-2.2545896e-10
-0.0071743326
0.00071874451
-2.4347248e-10
-0.0077896439
0.00061531163
-2.5069553e-10
-0.0082813377
0.00049169419
-2.6396722e-10
-0.0086297125
0.0003483751
-2.6483585e-10
-0.0088151123
0.00018540018
-2.7192409e-10
-0.0088176686
2.5566442e-06
-2.6504588e-10
-0.0086173223
-0.00020034594
-2.6393261e-10
-0.0081940879
-0.00042323405
-2.4841423e-10
-0.0075276457
-0.00066644188
-2.355285e-10
-0.0065969308
-0.00093071466
-2.0571819e-10
-0.0012024043
-0.0053945263
-1.6909942e-10
-0.000188556
0.00039159548
-0.00062684455
0.00091511195
-0.0012322093
0.0012719694
-0.001940394
0.0015002107
-0.0026990107
0.0016242961
-0.0034645862
0.0016626281
-0.0042004042
0.0016292064
-0.0048746875
0.0015343341
-0.0054591528
0.0013853916
-0.0059278697
0.0011874615
-0.0062563405
0.00094378254
-0.0064207539
0.00065610765
-0.0063973759
0.00032499719
-0.0061620668
-4.990884e-05
-0.0056899524
-0.00046955772
-0.0049553411
-0.00093495715
-0.0039319385
-0.0014466367
-0.0025927682
-0.0020056121
-0.00091001871
-0.0026134641
-0.0032402963
0.0011278734
-0.00015935766
0.00055095319
-0.00052019717
0.0012759515
-0.0010031097
0.001754882
-0.0015445557
0.0020416568
-0.0020913185
0.002171059
-0.0025979014
0.0021692111
-0.0030245742
0.0020558792
-0.0033356978
0.0018454578
-0.0034983721
0.001548066
-0.0034813545
0.001170444
-0.0032541718
0.00071659986
-0.0027863954
0.00018833135
-0.0020470047
-0.0004143935
-0.0010038699
-0.0010930435
0.00037667962
-0.0018501072
0.0021301381
-0.0026884155
0.004293787
-0.0036102856
0.0069063857
-0.0046182107
0.010008098
-0.005715176
-0.0068508578
0.013618659
-0.00011779497
0.00066874821
-0.00036759085
0.0015257475
-0.00067434866
0.0020616398
-0.00097555012
0.0023428583
-0.0012168957
0.0024124046
-0.0013501661
0.0023024815
-0.0013315582
0.0020372715
-0.0011202238
0.0016341235
-0.00067706843
0.0011049107
3.6205644e-05
0.00045716997
0.0010578867
-0.00030508113
0.0024269027
-0.0011806845
0.0041833674
-0.0021708582
0.0063690633
-0.0032787394
0.0090279489
-0.0045089928
0.012206717
-0.005867184
0.015955175
-0.0073587431
0.02032594
-0.008988976
0.025374231
-0.010763467
-0.012607583
0.031130956
-6.6910181e-05
0.00073565845
-0.00017895004
0.0016377874
-0.00026564911
0.002148339
-0.00026546231
0.0023426716
-0.00012271457
0.0022696569
0.0002140402
0.0019657268
0.00079335142
0.0014579603
0.001662045
0.00076543003
0.0028661964
-9.9240664e-05
0.004451918
-0.0011285516
0.006465923
-0.002319086
0.0089559399
-0.0036707014
0.011971037
-0.0051859556
0.015561949
-0.006869651
0.019781442
-0.0087284853
0.02468493
-0.010770672
0.03033135
-0.013005164
0.036783678
-0.015441304
0.044109696
-0.018089484
-0.020850094
0.052352207
-9.7619864e-06
0.00074542051
3.5575367e-05
0.0015924501
0.00020254603
0.0019813684
0.00055205641
0.0019931613
0.0011414288
0.0016802846
0.002025562
0.0010815937
0.0032578964
0.00022562595
0.0048912978
-0.00086797122
0.0069787131
-0.002186656
0.0095735428
-0.0037233812
0.012729846
-0.0054753891
0.016502439
-0.0074432949
0.020946816
-0.0096303321
0.026118972
-0.012041807
0.032075293
-0.014684807
0.038872838
-0.017568217
0.046570507
-0.020702832
0.055231093
-0.024101891
0.064925137
-0.027783528
-0.031629158
0.075704201
5.1182558e-05
0.00069423802
0.00026747951
0.0013761533
0.00071261052
0.0015362374
0.0014472798
0.0012584921
0.0025305593
0.00059700522
0.0040206473
-0.00040849418
0.0059754617
-0.0017291884
0.0084530234
-0.0033455328
0.011511581
-0.0052452137
0.015209575
-0.0074213747
0.019605356
-0.0098711705
0.024756651
-0.012594589
0.030719807
-0.015593488
0.037548879
-0.018870878
0.045294671
-0.022430599
0.054004169
-0.026277714
0.063721314
-0.030419977
0.074490378
-0.034870956
0.086364908
-0.039658057
-0.044664531
0.099400281
0.00011441291
0.0005798252
0.00051103557
0.0009795307
0.0012519014
0.0007953717
0.0023977604
0.00011263311
0.0040091932
-0.0010144275
0.0061469476
-0.0025462485
0.0088719103
-0.0044541511
0.012244922
-0.0067185441
0.016326358
-0.0093266504
0.021175374
-0.01227039
0.026848844
-0.015544641
0.033400023
-0.019145768
0.040876932
-0.023070397
0.049320535
-0.027314482
0.05876282
-0.031872884
0.069225148
-0.036740042
0.080718044
-0.041912873
0.093244283
-0.047397194
0.10681035
-0.053224125
-0.059313655
0.12145947
0.00017927546
0.00040054983
0.00076319721
0.00039560907
0.001812663
-0.00025409397
0.0033881533
-0.0014628571
0.0055507149
-0.003176989
0.0083616919
-0.0053572254
0.011882087
-0.0079745465
0.016171624
-0.011008081
0.021287445
-0.014442471
0.027282469
-0.018265414
0.034203442
-0.022465614
0.042088715
-0.027031041
0.050965794
-0.031947475
0.060848684
-0.037197373
0.071735038
-0.042759238
0.083603139
-0.048608143
0.096409701
-0.054719435
0.11009121
-0.061078699
0.12457733
-0.067710247
-0.074619102
0.13988277
0.00024605432
0.0010236908
0.0023919254
0.0044094801
0.0071355526
0.010628791
0.014945687
0.020138636
0.026253659
0.033327886
0.041386933
0.050442325
0.060489129
0.071503858
0.083442496
0.096238037
0.10979581
0.12397598
0.13851112
0.15292645
-0.0034343865
-0.0019601396
-1.4085979e-10
-0.0011902515
-0.002244135
-2.4750195e-11
0.001315735
-0.0025059866
1.1533335e-10
0.0040265381
-0.0027108034
2.7746324e-10
0.0069154139
-0.0028888763
4.524572e-10
0.0099651986
-0.0030497855
6.2985832e-10
0.013157075
-0.0031918771
8.1444803e-10
0.016473124
-0.0033160504
9.8200367e-10
0.01989776
-0.0034246373
1.113981e-09
0.02341689
-0.0035191307
1.1902581e-09
0.027017358
-0.0036004691
1.2019305e-09
0.03068688
-0.0036695231
1.1297222e-09
0.034413966
-0.0037270869
9.6721065e-10
0.038187788
-0.0037738225
6.9995744e-10
0.04199808
-0.0038102926
3.2913257e-10
0.045835078
-0.0038369979
-1.4905407e-10
0.049689473
-0.0038543947
-7.1911285e-10
0.053552383
-0.0038629088
-1.3660858e-09
0.057415336
-0.0038629503
-2.0519977e-09
0.061270264
-0.003854926
-2.7357453e-09
0.065109516
-0.0038392483
-3.3509202e-09
0.068925862
-0.0038163424
-3.8268622e-09
0.072712517
-0.0037866513
-4.0690127e-09
0.07646316
-0.0037506382
-3.9832919e-09
0.080171951
-0.0037087877
-3.4607771e-09
0.083833559
-0.0036616063
-2.40722e-09
0.087443181
-0.0036096211
-7.3403727e-10
0.090996558
-0.0035533782
1.6071009e-09
0.094489994
-0.0034934413
4.626399e-09
0.097920376
-0.0034303896
8.260656e-09
0.10128518
-0.0033648177
1.2370851e-08
0.1045825
-0.0032973345
1.6715689e-08
0.10781104
-0.0032285648
2.0952575e-08
0.11097017
-0.0031591517
2.463701e-08
0.1140599
-0.0030897619
2.7239556e-08
0.11708097
-0.0030210926
2.8191102e-08
0.12003482
-0.0029538825
2.6928077e-08
0.12292373
-0.0028889259
2.299715e-08
0.12575081
-0.0028270976
1.6132305e-08
0.12852017
-0.0027693627
6.3941257e-09
0.13123704
-0.0027168735
-5.7464108e-09
0.13390788
-0.0026708173
-1.9305108e-08
0.13654108
-0.0026331647
-3.278551e-08
0.13914575
-0.0026046249
-4.4347877e-08
0.14173761
-0.0025918114
-5.1844624e-08
0.14432349
-0.0025858264
-5.3350176e-08
0.14695505
-0.0026315084
-4.7162712e-08
0.14957663
-0.0026215527
-3.29288e-08
0.1524933
-0.0029166542
-1.1624847e-08
-0.0027184374
2.7758287e-08
0.0029688329
-0.0038010991
0.0050889557
-0.0043642579
0.0074576698
-0.0048747007
0.010012387
-0.0052655206
0.012732104
-0.0056085935
0.015604657
-0.0059223384
0.018613431
-0.0062006508
0.021742127
-0.0064447464
0.024976847
-0.0066593576
0.028304961
-0.0068472446
0.031714474
-0.0070099827
0.035194053
-0.0071491018
0.038732999
-0.0072660327
0.042321139
-0.0073619631
0.045948749
-0.0074379018
0.049606506
-0.007494755
0.053285469
-0.007533358
0.056977059
-0.0075544995
0.060673057
-0.0075589483
0.064365607
-0.0075474759
0.068047232
-0.0075208728
0.07171085
-0.0074799604
0.075349799
-0.0074256002
0.078957857
-0.0073586972
0.082529273
-0.0072802028
0.086058779
-0.007191113
0.089541625
-0.007092467
0.09297359
-0.0069853435
0.096351006
-0.006870857
0.099670771
-0.0067501549
0.10293037
-0.0066244156
0.10612788
-0.0064948471
0.10926201
-0.0063626906
0.11233208
-0.0062292248
0.11533809
-0.0060957758
0.11828073
-0.005963732
0.12116142
-0.0058345661
0.12398235
-0.0057098615
0.12674662
-0.0055913639
0.12945825
-0.0054809974
0.13212244
-0.0053810636
0.13474556
-0.0052939302
0.13733592
-0.0052235324
0.13990258
-0.0051712786
0.14246114
-0.0051503702
0.14501837
-0.0051430555
0.14762547
-0.0052386101
0.15022753
-0.0052236142
0.1531247
-0.0058138258
-0.0054283883
0.015211657
-0.0053940975
0.017066657
-0.0062192573
0.019146649
-0.0069546934
0.021381598
-0.0075004688
0.023759947
-0.0079869433
0.026278227
-0.0084406183
0.028923959
-0.0088463825
0.031683779
-0.0092045663
0.034546716
-0.0095222952
0.037502684
-0.0098032124
0.04054171
-0.010049009
0.04365409
-0.010261482
0.046830468
-0.010442411
0.050061773
-0.010593268
0.053339175
-0.010715304
0.056654085
-0.010809665
0.059998158
-0.010877431
0.063363306
-0.010919647
0.066741712
-0.010937354
0.070125856
-0.01093162
0.073508539
-0.010903556
0.076882912
-0.010854334
0.080242508
-0.010785195
0.083581265
-0.010697455
0.086893564
-0.010592502
0.090174248
-0.010471797
0.093418649
-0.010336868
0.096622614
-0.010189308
0.099782517
-0.010030761
0.10289529
-0.0098629264
0.10595842
-0.0096875494
0.10897
-0.0095064232
0.1119287
-0.0093213913
0.11483383
-0.0091343558
0.11768535
-0.0089472916
0.12048388
-0.0087622685
0.1232308
-0.0085814844
0.12592824
-0.0084073047
0.12857922
-0.0082423386
0.13118769
-0.0080894642
0.13375875
-0.0079521251
0.13629868
-0.0078338644
0.13881572
-0.0077405692
0.1413188
-0.0076743563
0.14382333
-0.0076549081
0.14633616
-0.007655886
0.14890731
-0.0078097514
0.15148433
-0.007800642
0.15435546
-0.0086849514
-0.0081367445
0.032337161
-0.0066003022
0.033777006
-0.0076591022
0.035409248
-0.0085869353
0.037160938
-0.0092521593
0.039032883
-0.0098588887
0.041031565
-0.010439299
0.043149963
-0.010964781
0.045378689
-0.011433292
0.047710307
-0.011853913
0.050137741
-0.012230647
0.052653444
-0.012564711
0.055249628
-0.012857665
0.057918459
-0.013111243
0.06065209
-0.013326899
0.063442669
-0.013505883
0.06628238
-0.013649376
0.069163496
-0.013758547
0.07207842
-0.013834572
0.075019735
-0.013878669
0.077980238
-0.013892123
0.080952992
-0.01387631
0.083931361
-0.013832703
0.086909053
-0.013762887
0.089880151
-0.013668553
0.092839153
-0.013551504
0.095780997
-0.013413641
0.098701091
-0.013256962
0.10159534
-0.013083552
0.10446015
-0.012895573
0.10729248
-0.012695257
0.11008983
-0.012484903
0.11285028
-0.012266875
0.1155725
-0.012043607
0.11825576
-0.011817614
0.12089997
-0.01159151
0.12350574
-0.011368036
0.12607437
-0.011150109
0.12860793
-0.010940869
0.13110937
-0.010743782
0.13358259
-0.010562676
0.13603259
-0.01040213
0.13846558
-0.010266856
0.14088969
-0.010164676
0.14331377
-0.010098434
0.14575298
-0.010094122
0.14821435
-0.010117258
0.15074611
-0.010341506
0.15329982
-0.01035436
0.15614572
-0.011530849
-0.010855884
0.053015859
-0.0072639547
0.053881136
-0.0085243795
0.054901522
-0.009607321
0.056011557
-0.010362194
0.05722625
-0.011073582
0.058560056
-0.011773106
0.060011643
-0.012416368
0.061576296
-0.012997946
0.063249958
-0.013527575
0.065028191
-0.014008879
0.066905641
-0.014442162
0.068876217
-0.014828241
0.07093334
-0.015168366
0.073070108
-0.015463668
0.075279391
-0.015715166
0.077553912
-0.015923897
0.079886337
-0.016090971
0.082269357
-0.016217592
0.084695762
-0.016305073
0.087158503
-0.016354865
0.089650752
-0.016368559
0.092165955
-0.016347906
0.094697876
-0.016294808
0.097240642
-0.01621132
0.099788783
-0.016099645
0.10233726
-0.015962116
0.10488149
-0.015801196
0.10741739
-0.015619453
0.10994138
-0.015419561
0.11245041
-0.015204281
0.11494196
-0.014976461
0.11741412
-0.01473903
0.11986552
-0.01449501
0.12229543
-0.014247522
0.12470374
-0.013999815
0.127091
-0.013755304
0.12945851
-0.013517618
0.13180831
-0.01329067
0.13414331
-0.013078783
0.13646737
-0.012886729
0.13878546
-0.012720219
0.14110373
-0.012585134
0.14343026
-0.012491203
0.14577386
-0.01244203
0.14814942
-0.012469687
0.15056429
-0.012532127
0.15306442
-0.012841639
0.15560664
-0.012896578
0.15843836
-0.014362569
-0.013605863
0.075655543
-0.0072152967
0.07578407
-0.0086529065
0.076033218
-0.0098564691
0.076359878
-0.010688854
0.076792341
-0.011506045
0.077347593
-0.012328357
0.078028812
-0.013097588
0.078836099
-0.013805233
0.079767928
-0.014459404
0.080821311
-0.015062262
0.081992176
-0.015613027
0.083275408
-0.016111472
0.084665011
-0.016557969
0.086154409
-0.016953065
0.087736642
-0.017297399
0.089404494
-0.01759175
0.091150607
-0.017837084
0.092967588
-0.018034573
0.09484811
-0.018185596
0.09678499
-0.018291745
0.098771259
-0.018354828
0.10080022
-0.018376868
0.10286551
-0.018360097
0.10496113
-0.018306941
0.1070815
-0.018220017
0.10922149
-0.018102105
0.11137644
-0.017956142
0.11354218
-0.017785199
0.11571509
-0.017592471
0.11789207
-0.01738126
0.12007058
-0.017154972
0.12224867
-0.016917114
0.12442496
-0.016671301
0.12659871
-0.016421272
0.12876981
-0.01617092
0.13093884
-0.015924334
0.13310709
-0.015685868
0.13527664
-0.015460213
0.1374504
-0.015252551
0.13963228
-0.015068605
0.14182728
-0.014915215
0.14404157
-0.014799431
0.14628323
-0.014732865
0.14856112
-0.014719915
0.1508899
-0.014798468
0.15327734
-0.014919566
0.15576682
-0.015331121
0.1583213
-0.015451056
0.16116203
-0.017203294
-0.016415816
0.098493102
-0.0063081177
0.097747012
-0.007906816
0.097093037
-0.0092024938
0.096532421
-0.010128238
0.096101545
-0.01107517
0.095811754
-0.012038566
0.095668543
-0.012954377
0.095676087
-0.013812776
0.095834088
-0.014617405
0.096139447
-0.015367621
0.09658797
-0.01606155
0.097174426
-0.016697928
0.097892519
-0.017276062
0.098735215
-0.017795762
0.099695047
-0.01825723
0.10076427
-0.018660978
0.10193502
-0.019007829
0.10319938
-0.019298932
0.10454954
-0.019535755
0.10597786
-0.019720064
0.10747695
-0.019853916
0.10903972
-0.019939645
0.11065948
-0.019979851
0.11232991
-0.019977375
0.11404518
-0.019935283
0.11579992
-0.019856845
0.11758928
-0.019745505
0.11940896
-0.019604874
0.12125519
-0.019438701
0.12312478
-0.019250858
0.12501516
-0.019045342
0.1269243
-0.018826261
0.12885085
-0.01859785
0.13079407
-0.01836449
0.13275389
-0.018130736
0.13473093
-0.017901377
0.13672656
-0.017681502
0.13874295
-0.017476599
0.14078312
-0.017292726
0.14285108
-0.017136562
0.14495195
-0.017016086
0.14709204
-0.016939521
0.14927952
-0.016920339
0.15152336
-0.016963757
0.1538381
-0.017113206
0.15623201
-0.017313477
0.15874575
-0.017844868
0.16134895
-0.018054252
0.16423477
-0.020089113
-0.019324484
0.11965207
-0.0045007167
0.11797733
-0.0062320754
0.11635706
-0.0075822242
0.11487534
-0.0086465203
0.11356855
-0.009768371
0.11243429
-0.010904306
0.11147815
-0.011998247
0.11070659
-0.013041208
0.11011916
-0.014029976
0.10971144
-0.014959901
0.10947778
-0.015827896
0.10941171
-0.01663185
0.10950579
-0.017370149
0.10975193
-0.018041899
0.1101416
-0.018646902
0.1106661
-0.019185472
0.11131664
-0.019658367
0.11208449
-0.020066785
0.11296108
-0.020412345
0.11393807
-0.020697054
0.11500744
-0.020923284
0.11616154
-0.021093744
0.11739315
-0.021211463
0.11869553
-0.021279757
0.12006245
-0.021302203
0.12148821
-0.021282609
0.1229677
-0.021224994
0.12449638
-0.021133552
0.12607031
-0.021012636
0.1276862
-0.020866743
0.12934135
-0.020700498
0.13103375
-0.020518657
0.13276202
-0.020326116
0.13452546
-0.02012793
0.13632407
-0.019929356
0.13815861
-0.019735909
0.14003055
-0.019553449
0.14194224
-0.019388287
0.14389689
-0.019247373
0.1458987
-0.019138371
0.14795302
-0.019070404
0.15006637
-0.019052878
0.15224715
-0.019101111
0.15450454
-0.019221148
0.15685304
-0.019461708
0.1593015
-0.019761936
0.16188785
-0.020431219
0.16458855
-0.020754954
0.16756801
-0.02306857
-0.022379819
0.13731615
-0.0019340899
0.13481226
-0.0037281894
0.1322698
-0.005039766
0.12993053
-0.0063072448
0.12782156
-0.0076594014
0.1259244
-0.009007144
0.124242
-0.010315855
0.12277959
-0.011578795
0.12153575
-0.012786135
0.12050487
-0.013929024
0.11967962
-0.015002644
0.11905182
-0.01600405
0.11861266
-0.016930986
0.1183528
-0.017782039
0.11826258
-0.018556685
0.11833222
-0.019255109
0.11855193
-0.019878085
0.11891209
-0.020426936
0.11940324
-0.020903498
0.12001627
-0.021310087
0.12074244
-0.021649452
0.12157344
-0.021924747
0.12250148
-0.022139497
0.12351927
-0.022297554
0.12462015
-0.022403076
0.12579802
-0.022460479
0.12704743
-0.022474411
0.1283636
-0.022449719
0.12974239
-0.022391424
0.13118035
-0.022304701
0.13267471
-0.022194864
0.13422343
-0.022067371
0.13582514
-0.021927828
0.13747923
-0.021782016
0.13918581
-0.021635939
0.14094578
-0.021495881
0.14276085
-0.021368515
0.14463357
-0.021261004
0.14656742
-0.021181231
0.14856692
-0.021137863
0.1506377
-0.021141194
0.15278664
-0.021201815
0.15502242
-0.021336888
0.15735455
-0.021553279
0.1597976
-0.021904756
0.16236101
-0.022325349
0.16508004
-0.023150252
0.16793805
-0.023612959
0.17107039
-0.026200911
-0.025637768
0.15039871
0.00059364682
0.14712125
-0.00045072477
0.14383751
-0.0017560263
0.1408048
-0.0032745322
0.13802637
-0.0048809774
0.13549612
-0.0064768938
0.13321605
-0.0080357845
0.13118637
-0.0095491148
0.12940477
-0.011004533
0.1278662
-0.012390451
0.126563
-0.013699444
0.12548594
-0.014926993
0.12462503
-0.016070078
0.12396981
-0.017126812
0.12350949
-0.018096363
0.12323318
-0.018978802
0.12313006
-0.019774961
0.12318946
-0.020486344
0.12340104
-0.021115073
0.12375478
-0.021663832
0.12424116
-0.022135822
0.12485112
-0.022534711
0.12557621
-0.022864589
0.12640859
-0.023129928
0.12734105
-0.023335536
0.12836708
-0.023486512
0.12948088
-0.023588213
0.13067737
-0.02364621
0.13195221
-0.023666265
0.13330181
-0.0236543
0.13472334
-0.02361639
0.13621472
-0.023558755
0.13777467
-0.023487774
0.13940266
-0.023410014
0.141099
-0.023332276
0.14286479
-0.023261668
0.14470199
-0.023205717
0.14661347
-0.023172486
0.14860306
-0.023170822
0.15067563
-0.023210426
0.15283722
-0.023302789
0.1550951
-0.02345969
0.15745835
-0.023700145
0.15993684
-0.024031769
0.1625454
-0.02451331
0.1652937
-0.025073652
0.16821552
-0.026072068
0.17129741
-0.026694848
0.17465573
-0.029559233
-0.0291558
0.1894301
0.0051735312
-0.19400998
0.18564154
0.0033378342
0.18227157
0.0016139463
0.17914956
-0.00015253119
0.17623818
-0.0019695895
0.17351244
-0.0037511539
0.17095428
-0.0054776239
0.16855484
-0.0071496751
0.16631036
-0.0087600595
0.16421884
-0.010298926
0.16227856
-0.011759164
0.16048758
-0.013136012
0.15884343
-0.014425929
0.15734301
-0.015626395
0.15598261
-0.016735961
0.15475798
-0.017754168
0.15366443
-0.018681409
0.15269692
-0.019518841
0.15185018
-0.020268327
0.15111873
-0.020932383
0.15049702
-0.021514116
0.14997949
-0.022017178
0.14956061
-0.022445711
0.14923498
-0.022804295
0.14899735
-0.023097903
0.14884268
-0.023331849
0.14876621
-0.023511743
0.14876346
-0.023643453
0.14883026
-0.023733067
0.14896282
-0.023786866
0.14915774
-0.023811309
0.14941201
-0.023813026
0.14972307
-0.023798832
0.15008881
-0.023775749
0.15050759
-0.023751061
0.15097831
-0.023732386
0.15150038
-0.023727789
0.1520738
-0.023745907
0.15269919
-0.023796209
0.15337782
-0.023889056
0.15411174
-0.024036707
0.15490372
-0.024251671
0.15575772
-0.024554148
0.15667804
-0.024952084
0.15767227
-0.025507546
0.15874367
-0.026145047
0.15991349
-0.027241885
0.16115994
-0.027941305
0.16258286
-0.030982151
-0.030613946
0.21736114
0.0085499202
-0.22073753
0.21391025
0.006788728
0.2107207
0.0048034954
0.20763963
0.0029285404
0.20461829
0.0010517441
0.20168769
-0.00082055546
0.19886484
-0.0026547681
0.19615438
-0.0044392145
0.19356234
-0.006168026
0.19109572
-0.0078323001
0.18875987
-0.0094233117
0.18655836
-0.010934509
0.18449339
-0.012360961
0.18256586
-0.013698863
0.18077545
-0.014945551
0.17912078
-0.016099492
0.17759955
-0.017160179
0.17620872
-0.01812802
0.17494467
-0.019004269
0.17380325
-0.019790963
0.17277998
-0.020490853
0.17187015
-0.021107341
0.17106885
-0.021644418
0.17037116
-0.022106603
0.16977215
-0.022498887
0.16926697
-0.022826672
0.16885095
-0.023095724
0.16851961
-0.023312117
0.16826875
-0.023482202
0.16809445
-0.023612564
0.16799314
-0.023710007
0.16796166
-0.023781543
0.16799723
-0.0238344
0.16809753
-0.023876048
0.16826072
-0.023914248
0.16848545
-0.023957124
0.16877095
-0.024013282
0.16911698
-0.02409194
0.16952396
-0.024203186
0.16999295
-0.024358048
0.17052576
-0.024569521
0.17112499
-0.024850895
0.17179415
-0.025223313
0.17253763
-0.025695566
0.17336136
-0.026331271
0.17427119
-0.027054873
0.17527797
-0.028248666
0.17638246
-0.029045797
0.17761492
-0.032214617
-0.031949754
0.24423558
0.011253216
-0.24693888
0.24140698
0.0096173237
0.23857609
0.0076343931
0.23575251
0.0057521125
0.23289941
0.0039048521
0.23003752
0.0020413324
0.22719808
0.00018467026
0.22440051
-0.0016416456
0.22166087
-0.0034283798
0.2189952
-0.0051666369
0.21641753
-0.0068456386
0.21393901
-0.0084559916
0.21156845
-0.0099903945
0.20931259
-0.011443012
0.20717632
-0.012809272
0.20516274
-0.014085913
0.20327348
-0.015270922
0.20150888
-0.016363415
0.19986816
-0.017363549
0.19834963
-0.018272441
0.19695087
-0.019092091
0.19566883
-0.019825303
0.19450003
-0.020475611
0.19344063
-0.021047202
0.19248659
-0.021544851
0.19163376
-0.021973847
0.19087797
-0.022339934
0.19021511
-0.022649252
0.1896412
-0.022908289
0.18915247
-0.023123836
0.18874542
-0.023302961
0.18841687
-0.023452993
0.188164
-0.023581527
0.18798439
-0.02369644
0.18787609
-0.023805945
0.18783762
-0.023918657
0.18786805
-0.024043711
0.187967
-0.02419089
0.18813471
-0.024370895
0.18837208
-0.024595414
0.18868069
-0.024878134
0.18906296
-0.025233169
0.18952199
-0.025682335
0.19006221
-0.026235789
0.19068771
-0.026956773
0.19140721
-0.027774376
0.19221969
-0.029061139
0.19315178
-0.029977891
0.19415107
-0.033213906
-0.033131622
0.26969704
0.013268486
-0.27171231
0.26754786
0.011766502
0.26522581
0.009956445
0.26280737
0.0081705536
0.26030079
0.0064114265
0.25771628
0.0046258427
0.25507998
0.0028209725
0.25241612
0.0010222193
0.24974477
-0.00075703649
0.24708592
-0.0025077837
0.24445897
-0.0042186871
0.24188119
-0.0058782159
0.23936749
-0.0074766944
0.23693055
-0.0090060711
0.23458088
-0.010459603
0.23232689
-0.011831916
0.23017501
-0.013119044
0.22812993
-0.014318342
0.22619478
-0.015428398
0.22437129
-0.016448953
0.22266003
-0.017380822
0.22106053
-0.018225804
0.21957151
-0.018986599
0.21819103
-0.019666723
0.21691661
-0.020270424
0.21574537
-0.020802605
0.21467418
-0.021268749
0.21369978
-0.021674849
0.21281883
-0.022027346
0.21202808
-0.022333084
0.21132438
-0.022599263
0.21070481
-0.022833423
0.21016672
-0.023043435
0.2097078
-0.023237518
0.20932613
-0.023424277
0.20902025
-0.023612774
0.20878917
-0.023812635
0.20863247
-0.024034188
0.20855029
-0.02428871
0.2085434
-0.024588532
0.20861325
-0.024947978
0.20876207
-0.025381991
0.20899255
-0.025912819
0.20930913
-0.026552369
0.2097142
-0.027361844
0.21021868
-0.028278853
0.21081084
-0.029653294
0.21153937
-0.030706424
0.21227581
-0.033950344
-0.034122761
0.29335835
0.014586181
-0.29467604
0.29189351
0.013231342
0.29018654
0.011663417
0.28830453
0.01005256
0.28628257
0.0084333871
0.28413158
0.0067768273
0.28187004
0.0050825145
0.2795213
0.0033709575
0.27710677
0.0016575022
0.27464659
-4.7605533e-05
0.27216112
-0.0017332202
0.26967031
-0.0033874096
0.26719266
-0.0049990361
0.26474491
-0.0065583292
0.26234203
-0.008056718
0.25999699
-0.0094868793
0.25772081
-0.010842866
0.25552259
-0.012120118
0.25340961
-0.013315415
0.25138748
-0.014426825
0.2494603
-0.015453643
0.24763081
-0.016396314
0.24590057
-0.017256354
0.24427011
-0.018036263
0.24273912
-0.018739438
0.24130661
-0.01937009
0.23997101
-0.019933157
0.23873039
-0.020434229
0.23758252
-0.020879475
0.23652502
-0.021275584
0.23555548
-0.021629717
0.23467152
-0.02194947
0.23387095
-0.022242862
0.23315178
-0.022518345
0.23251233
-0.022784826
0.23195129
-0.02305174
0.2314678
-0.023329145
0.23106147
-0.023627856
0.23073244
-0.023959682
0.23048146
-0.02433755
0.23030984
-0.024776356
0.23021969
-0.025291842
0.23021335
-0.025906482
0.23029512
-0.026634142
0.23046596
-0.027532682
0.23073814
-0.028551028
0.23109099
-0.03000615
0.23159009
-0.03120552