/*--------------------------------*- C++ -*----------------------------------*\
  =========                 |
  \\      /  F ield         | OpenFOAM: The Open Source CFD Toolbox
   \\    /   O peration     | Website:  https://openfoam.org
    \\  /    A nd           | Version:  6
     \\/     M anipulation  |
\*---------------------------------------------------------------------------*/
FoamFile
{
    version     2.0;
    format      ascii;
    class       surfaceScalarField;
    location    "51";
    object      phi_0;
}
// * * * * * * * * * * * * * * * * * * * * * * * * * * * * * * * * * * * * * //

dimensions      [0 3 -1 0 0 0 0];

internalField   nonuniform List<scalar> 
18180
(
0.00031982801
-0.00016533625
-0.00015449163
0.0013136113
-0.0013758311
0.00038204793
0.0030429223
-0.0033516849
0.0016223741
0.0055679085
-0.0060054765
0.0034804905
0.00894701
-0.0092822823
0.005903181
0.013234945
-0.013138567
0.0088506317
0.018480022
-0.017536745
0.012291667
0.024721143
-0.022442438
0.016201317
0.031984625
-0.027821333
0.020557852
0.040281102
-0.033636554
0.025340077
0.049602832
-0.039846908
0.030525179
0.059921759
-0.046405966
0.036087039
0.07118877
-0.053261986
0.041994975
0.083334572
-0.060358693
0.048212892
0.096272821
-0.06763701
0.054698761
0.10990601
-0.075037852
0.061404662
0.12413357
-0.08250583
0.068278276
0.1388671
-0.089993564
0.075260028
0.15410408
-0.097483595
0.082246618
-0.10497347
0.089035749
0.1700418
0.00039874799
-0.00056408415
0.0016145432
-0.0025916262
0.003700482
-0.0054376236
0.0067073968
-0.0090123912
0.010681974
-0.01325686
0.015663061
-0.018119653
0.021677623
-0.023551307
0.028736756
-0.029501571
0.036832033
-0.035916609
0.045932598
-0.04273712
0.055983445
-0.049897755
0.066905229
-0.05732775
0.078595864
-0.064952621
0.090933987
-0.072696816
0.10378408
-0.080487098
0.11700262
-0.088256392
0.13044435
-0.095947568
0.14396912
-0.10351833
0.15744081
-0.11095528
-0.11818922
0.17065656
0.00048201917
-0.0010461032
0.0019241317
-0.0040337387
0.004364576
-0.0078780677
0.0078378965
-0.012485712
0.012370669
-0.017789632
0.017976059
-0.023725043
0.024648713
-0.030223961
0.03236047
-0.037213328
0.041057332
-0.044613471
0.050658183
-0.052337971
0.061055639
-0.06029521
0.07211918
-0.068391291
0.083700461
-0.076533902
0.095640354
-0.084636709
0.107777
-0.092623743
0.11995377
-0.10043317
0.13202601
-0.1080198
0.14386442
-0.11535675
0.15534752
-0.12243837
-0.12921519
0.16637348
0.00056769323
-0.0016137963
0.0022337631
-0.0056998084
0.0050133691
-0.010657674
0.0089161513
-0.016388494
0.013938917
-0.022812398
0.020058734
-0.02984486
0.027227577
-0.037392803
0.035368993
-0.045354744
0.044377243
-0.053621721
0.05411929
-0.062080017
0.064439665
-0.070615586
0.075167884
-0.07911951
0.086127693
-0.087493711
0.09714716
-0.095656177
0.10806845
-0.10354504
0.11875616
-0.11112088
0.1291033
-0.11836694
0.13903388
-0.12528733
0.14849969
-0.13190419
-0.13821745
0.15750196
0.00065250776
-0.002266304
0.0025304093
-0.0075777099
0.0056166967
-0.013743961
0.009886711
-0.020658508
0.015297732
-0.028223419
0.021781436
-0.036328563
0.029239623
-0.044850991
0.037543422
-0.053658543
0.046536187
-0.062614486
0.056039972
-0.071583803
0.06586495
-0.080440564
0.075820688
-0.089075247
0.085727928
-0.097400952
0.095429425
-0.10535767
0.10479855
-0.11291416
0.11374478
-0.12006711
0.1222158
-0.12683796
0.1301962
-0.13326773
0.13770299
-0.13941098
-0.14531201
0.14479755
0.0007323134
-0.0029986172
0.0027982231
-0.0096436194
0.006139517
-0.017085255
0.010688274
-0.025207265
0.016353964
-0.033889109
0.023016611
-0.042991211
0.030525208
-0.052359588
0.038700957
-0.061834291
0.047344946
-0.071258474
0.056249299
-0.080488157
0.065210285
-0.089401549
0.074041553
-0.097906516
0.082585721
-0.10594512
0.090722846
-0.1134948
0.098374855
-0.12056616
0.10550578
-0.12719804
0.11211832
-0.13345049
0.11824763
-0.13939704
0.12395382
-0.14511717
-0.15068238
0.12932419
0.00080241364
-0.0038010308
0.0030199185
-0.011861124
0.0065452575
-0.020610593
0.011260117
-0.029922124
0.017020972
-0.039649964
0.023654595
-0.049624833
0.030960623
-0.059665616
0.038719732
-0.069593401
0.046706061
-0.079244803
0.054701881
-0.088483977
0.06251221
-0.097211878
0.069977105
-0.10537141
0.076979984
-0.112948
0.083451016
-0.11996583
0.089365623
-0.12648077
0.094738825
-0.13257124
0.099616855
-0.13832852
0.10406764
-0.14384782
0.10817174
-0.14922127
-0.15453019
0.11201955
0.00085768865
-0.0046587193
0.0031777131
-0.014181148
0.0067985491
-0.024231429
0.011547607
-0.034671182
0.017227592
-0.045329949
0.023615955
-0.056013196
0.030472492
-0.066522153
0.037552339
-0.076673248
0.044621849
-0.086314312
0.051474499
-0.095336627
0.057944051
-0.10368143
0.063912949
-0.11134031
0.069314951
-0.11835
0.074132174
-0.12478305
0.078387614
-0.13073621
0.082134865
-0.13631849
0.08544694
-0.1416406
0.088405939
-0.14680682
0.091094833
-0.15191016
-0.1570289
0.093593545
0.00089177691
-0.005550496
0.0032533712
-0.016542743
0.0068674802
-0.027845538
0.011507356
-0.039311057
0.01692602
-0.050748613
0.02286077
-0.061947946
0.029045757
-0.07270714
0.035228535
-0.082856027
0.041187135
-0.092272911
0.046744298
-0.10089379
0.051776357
-0.10871349
0.056215543
-0.11577949
0.060045976
-0.12218043
0.063294682
-0.12803176
0.066019692
-0.13346122
0.06829743
-0.13859623
0.070211297
-0.14355447
0.071842814
-0.14843834
0.073265889
-0.15333324
-0.158307
0.074543991
0.00090116058
-0.0064516564
0.0032377228
-0.018879304
0.0067372194
-0.031345035
0.011122682
-0.043696519
0.016106224
-0.055732156
0.02139855
-0.067240271
0.026725347
-0.078033937
0.031845147
-0.087975827
0.036564718
-0.096992482
0.040748822
-0.10507789
0.044322751
-0.11228742
0.047267758
-0.1187245
0.049610953
-0.12452363
0.051412028
-0.12983283
0.052749316
-0.13479851
0.05370733
-0.13955424
0.054367171
-0.14421431
0.054800436
-0.1488716
0.055066426
-0.15359923
0.055211087
-0.15845166
-0.00020304183
0.00020304191
-1.9932272e-11
-0.00067987047
0.00047682878
-6.3124393e-11
-0.0013464821
0.00066661178
-9.4745897e-11
-0.002138516
0.00079203408
-1.2414109e-10
-0.0030042033
0.00086568762
-1.4721304e-10
-0.0039012635
0.00089706043
-1.717683e-10
-0.0047946585
0.00089339524
-1.8903281e-10
-0.0056547145
0.00086005633
-2.1015397e-10
-0.0064556443
0.00080093008
-2.2247541e-10
-0.00717439
0.00071874602
-2.4017608e-10
-0.0077897
0.00061531036
-2.4701651e-10
-0.0082813892
0.00049168961
-2.5992463e-10
-0.0086297555
0.00034836663
-2.6034584e-10
-0.0088151423
0.00018538715
-2.6700991e-10
-0.0088176802
2.5383007e-06
-2.5963218e-10
-0.0086173095
-0.00020037043
-2.5805164e-10
-0.0081940435
-0.00042326562
-2.4200501e-10
-0.0075275617
-0.00066648155
-2.2862993e-10
-0.0065967978
-0.00093076359
-1.9828609e-10
-0.0012024635
-0.0053943341
-1.6116372e-10
-0.00018855817
0.00039160012
-0.00062685142
0.00091512209
-0.0012322222
0.0012719827
-0.0019404135
0.0015002254
-0.0026990365
0.0016243107
-0.0034646174
0.0016626414
-0.0042004395
0.0016292174
-0.0048747248
0.0015343417
-0.0054591896
0.0013853949
-0.0059279029
0.0011874594
-0.0062563664
0.00094377395
-0.006420768
0.00065609135
-0.0063973732
0.00032497186
-0.0061620413
-4.9944708e-05
-0.0056898971
-0.00046960582
-0.0049552481
-0.00093501937
-0.0039317986
-0.0014467151
-0.002592571
-0.0020057091
-0.00090975232
-0.0026135822
-0.0032404378
0.0011282221
-0.00015935927
0.00055095943
-0.00052020206
0.0012759649
-0.0010031185
0.0017548991
-0.0015445681
0.0020416751
-0.0020913334
0.0021710762
-0.0025979172
0.0021692253
-0.0030245884
0.0020558887
-0.0033357074
0.0018454607
-0.0034983732
0.0015480608
-0.0034813426
0.0011704288
-0.0032541414
0.00071657284
-0.0027863403
0.00018829034
-0.0020469176
-0.00041445082
-0.0010037425
-0.0010931197
0.00037685701
-0.0018502053
0.0021303764
-0.0026885387
0.0042940987
-0.0036104374
0.0069067848
-0.0046183951
0.0100086
-0.0057153974
-0.0068511201
0.013619282
-0.00011779582
0.00066875531
-0.00036759307
0.0015257623
-0.00067435181
0.0020616579
-0.00097555291
0.0023428762
-0.001216896
0.0024124193
-0.001350161
0.0023024903
-0.0013315441
0.0020372718
-0.0011201961
0.0016341128
-0.0006770216
0.0011048864
3.6277938e-05
0.00045712936
0.0010579919
-0.00030514105
0.0024270493
-0.001180767
0.0041835653
-0.0021709668
0.0063693236
-0.0032788779
0.009028284
-0.0045091657
0.012207142
-0.0058673961
0.015955704
-0.0073589995
0.020326591
-0.0089892826
0.025375023
-0.01076383
-0.012608008
0.031131912
-6.6910191e-05
0.00073566556
-0.00017894925
0.0016378014
-0.00026564585
0.0021483546
-0.0002654541
0.0023426845
-0.00012269804
0.0022696633
0.00021406927
0.0019657231
0.00079339818
0.001457943
0.0016621155
0.00076539556
0.0028662979
-9.929591e-05
0.0044520589
-0.0011286315
0.0064661126
-0.0023191947
0.008956189
-0.0036708434
0.011971358
-0.0051861357
0.015562355
-0.0068698746
0.019781947
-0.0087287581
0.024685551
-0.010771
0.030332106
-0.013005554
0.036784586
-0.015441763
0.044110777
-0.01809002
-0.020850714
0.052353483
-9.7611585e-06
0.00074542679
3.5579228e-05
0.0015924611
0.00020255588
0.001981378
0.00055207601
0.0019931645
0.0011414628
0.0016802766
0.002025616
0.00108157
0.003257977
0.00022558203
0.0048914126
-0.00086803991
0.006978871
-0.0021867542
0.0095737536
-0.003723514
0.012730121
-0.0054755618
0.016502791
-0.0074435132
0.020947257
-0.0096306022
0.026119517
-0.012042135
0.032075959
-0.0146852
0.038873642
-0.017568682
0.046571464
-0.020703377
0.055232223
-0.024102522
0.064926456
-0.027784253
-0.031629986
0.075705728
5.1184161e-05
0.0006942427
0.00026748628
0.0013761591
0.00071262668
0.0015362377
0.0014473104
0.0012584808
0.0025306102
0.00059697688
0.0040207254
-0.00040854511
0.0059755749
-0.0017292674
0.0084531806
-0.0033456455
0.011511792
-0.0052453659
0.015209851
-0.0074215726
0.01960571
-0.0098714204
0.024757094
-0.012594898
0.030720354
-0.015593862
0.037549544
-0.018871325
0.04529547
-0.022431125
0.054005115
-0.026278327
0.063722421
-0.030420683
0.07449166
-0.034871761
0.086366374
-0.039658968
-0.044665554
0.099401942
0.0001144152
0.00057982759
0.00051104496
0.00097952939
0.0012519234
0.00079535941
0.0023978012
0.00011260311
0.0040092598
-0.0010144817
0.0061470479
-0.0025463332
0.0088720533
-0.0044542728
0.012245117
-0.0067187093
0.016326617
-0.0093268658
0.021175707
-0.012270663
0.026849264
-0.015544977
0.033400541
-0.019146175
0.040877562
-0.023070882
0.049321289
-0.027315052
0.058763708
-0.031873545
0.06922618
-0.036740799
0.080719228
-0.041913731
0.093245624
-0.047398157
0.10681185
-0.053225193
-0.059314833
0.12146113
0.00017927836
0.00040054933
0.00076320895
0.00039559891
0.0018126901
-0.00025412167
0.0033882031
-0.0014629098
0.0055507954
-0.0031770738
0.0083618118
-0.0053573495
0.011882256
-0.0079747172
0.016171852
-0.011008305
0.021287742
-0.014442756
0.027282847
-0.018265767
0.034203912
-0.022466042
0.042089286
-0.02703155
0.050966475
-0.031948071
0.060849484
-0.037198061
0.071735961
-0.042760022
0.083604189
-0.048609026
0.096410877
-0.054720418
0.1100925
-0.061079782
0.12457874
-0.067711428
-0.074620377
0.13988428
0.00024605775
0.0010237047
0.0023919572
0.004409538
0.0071356452
0.010628927
0.014945878
0.02013889
0.026253985
0.033328295
0.041387432
0.050442921
0.060489826
0.071504657
0.083443396
0.096239031
0.10979689
0.12397713
0.13851232
0.1529277
-0.0034341227
-0.0019602113
-1.2942326e-10
-0.0011899055
-0.0022442172
-1.261603e-11
0.0013161745
-0.0025060801
1.2790886e-10
0.004027082
-0.0027109077
2.9011398e-10
0.0069160731
-0.0028889917
4.6463326e-10
0.0099659849
-0.0030499125
6.4093373e-10
0.013158
-0.0031920162
8.2364412e-10
0.016474201
-0.003316202
9.8842565e-10
0.019899002
-0.0034248019
1.116609e-09
0.02341831
-0.0035193088
1.1880028e-09
0.02701897
-0.0036006612
1.1937997e-09
0.030688698
-0.0036697299
1.114916e-09
0.034416006
-0.003727309
9.4529385e-10
0.038190066
-0.0037740605
6.7091957e-10
0.042000613
-0.0038105473
2.9353084e-10
0.045837884
-0.0038372702
-1.9004497e-10
0.04969257
-0.0038546857
-7.6357599e-10
0.053555791
-0.0038632195
-1.4113459e-09
0.057419075
-0.0038632819
-2.094555e-09
0.061274357
-0.0038552799
-2.7713401e-09
0.065113987
-0.0038396262
-3.3745877e-09
0.068930737
-0.0038167462
-3.8331576e-09
0.072717824
-0.0037870829
-4.0522697e-09
0.076468928
-0.0037510999
-3.9380838e-09
0.080178213
-0.0037092822
-3.3824265e-09
0.083840352
-0.0036621367
-2.2925107e-09
0.087450543
-0.0036101906
-5.8192885e-10
0.091004532
-0.0035539907
1.7946288e-09
0.094498629
-0.0034941011
4.8436439e-09
0.097929722
-0.0034311017
8.4975215e-09
0.1012953
-0.0033655876
1.2612572e-08
0.10459345
-0.0032981686
1.694284e-08
0.1078229
-0.0032294703
2.1141811e-08
0.11098301
-0.0031601371
2.4762328e-08
0.11407382
-0.0030908366
2.7274566e-08
0.11709606
-0.0030222677
2.8111894e-08
0.1200512
-0.0029551712
2.6717119e-08
0.12294152
-0.0028903433
2.2647276e-08
0.12577017
-0.0028286618
1.5651202e-08
0.12854126
-0.0027710946
5.8073592e-09
0.13126006
-0.0027187978
-6.3930654e-09
0.13393305
-0.0026729626
-1.9947174e-08
0.13656864
-0.0026355639
-3.3344007e-08
0.139176
-0.0026073134
-4.4739034e-08
0.14177089
-0.0025948341
-5.1991002e-08
0.14436015
-0.0025892132
-5.3198135e-08
0.14699555
-0.0026353542
-4.6691557e-08
0.14962136
-0.0026257757
-3.2181514e-08
0.1525431
-0.0029217281
-1.0633291e-08
-0.0027237158
2.8673808e-08
0.0029692565
-0.0038012457
0.0050894642
-0.0043644249
0.0074582737
-0.0048748897
0.010013097
-0.0052657307
0.01273293
-0.0056088251
0.01560561
-0.0059225927
0.018614523
-0.0062009288
0.02174337
-0.0064450489
0.024978253
-0.0066596856
0.028306544
-0.0068475992
0.031716248
-0.007010365
0.035196031
-0.0071495129
0.038735196
-0.007266474
0.042323571
-0.0073624359
0.045951431
-0.0074384078
0.049609457
-0.0074952959
0.053288707
-0.0075339358
0.056980604
-0.0075551164
0.060676929
-0.0075596069
0.064369828
-0.007548179
0.068051825
-0.0075216235
0.071715841
-0.0074807624
0.075355216
-0.0074264576
0.078963731
-0.0073596147
0.082535634
-0.0072811856
0.086065665
-0.0071921672
0.089549073
-0.0070935993
0.092981644
-0.0069865614
0.096359712
-0.0068721694
0.099680182
-0.0067515715
0.10294054
-0.0066259475
0.10613888
-0.0064965072
0.1092739
-0.0063644933
0.11234495
-0.0062311868
0.11535203
-0.0060979162
0.11829584
-0.0059660731
0.1211778
-0.0058371339
0.12400014
-0.0057126863
0.12676596
-0.0055944815
0.12947932
-0.0054844497
0.13214542
-0.0053848996
0.13477066
-0.0052982064
0.13736341
-0.0052283146
0.13993274
-0.0051766369
0.1424943
-0.0051563941
0.14505489
-0.0051498038
0.14766581
-0.0052462724
0.15027206
-0.0052320262
0.15317426
-0.0058239333
-0.0054388987
0.015212361
-0.0053943243
0.017067449
-0.0062195128
0.019147539
-0.0069549805
0.021382595
-0.0075007861
0.023761061
-0.0079872916
0.026279468
-0.0084409995
0.028925337
-0.0088467981
0.031685306
-0.0092050177
0.034548404
-0.0095227839
0.037504545
-0.0098037399
0.040543757
-0.010049577
0.043656336
-0.010262092
0.046832928
-0.010443066
0.050064461
-0.010593969
0.053342108
-0.010716055
0.056657279
-0.010810467
0.060001631
-0.010878288
0.063367076
-0.010920562
0.0667458
-0.010938331
0.070130283
-0.010932662
0.073513329
-0.010904669
0.07688809
-0.010855524
0.0802481
-0.010786468
0.083587302
-0.010698817
0.086900078
-0.010593961
0.090181273
-0.010473362
0.093426224
-0.01033855
0.09663078
-0.010191118
0.099791323
-0.010032712
0.10290478
-0.0098650332
0.10596867
-0.0096898286
0.10898105
-0.0095088939
0.11194063
-0.0093240753
0.11484673
-0.0091372778
0.11769929
-0.0089504805
0.12049897
-0.0087657575
0.12324715
-0.0085853123
0.12594598
-0.0084115167
0.12859849
-0.008246988
0.13120865
-0.0080946133
0.1337816
-0.0079578469
0.13632364
-0.0078402431
0.13884303
-0.0077477024
0.14134874
-0.0076823483
0.14385623
-0.007663892
0.14637238
-0.007665949
0.14894728
-0.0078211759
0.15152844
-0.0078131827
0.15440452
-0.008700014
-0.0081524058
0.032338201
-0.0066006142
0.033778138
-0.0076594494
0.035410479
-0.0085873219
0.037162277
-0.009252584
0.039034338
-0.0098593529
0.041033144
-0.010439806
0.043151678
-0.010965332
0.045380549
-0.011433889
0.047712323
-0.011854557
0.050139924
-0.012231341
0.052655806
-0.012565459
0.055252181
-0.012858468
0.057921218
-0.013112103
0.060655069
-0.01332782
0.063445882
-0.013506868
0.066285844
-0.013650429
0.069167227
-0.013759671
0.072082438
-0.013835773
0.075024058
-0.013879951
0.077984888
-0.013893492
0.08095799
-0.013877772
0.083936733
-0.013834266
0.086914825
-0.013764559
0.089886352
-0.013670344
0.092845814
-0.013553423
0.095788152
-0.013415701
0.098708779
-0.013259177
0.1016036
-0.013085936
0.10446903
-0.012898144
0.10730203
-0.012698034
0.11010011
-0.012487909
0.11286135
-0.012270135
0.11558443
-0.01204715
0.11826862
-0.011821473
0.12091386
-0.011595723
0.12352075
-0.011372648
0.12609061
-0.01115517
0.12862553
-0.01094644
0.13112848
-0.010749933
0.13360336
-0.010569489
0.13605521
-0.010409701
0.13849026
-0.010275297
0.14091668
-0.010174115
0.14334334
-0.010109009
0.14578545
-0.010106008
0.14825007
-0.01013057
0.15078551
-0.010356615
0.15334327
-0.010370945
0.15619401
-0.011550752
-0.010876582
0.053017223
-0.0072643538
0.053882592
-0.0085248187
0.054903076
-0.0096078056
0.056013216
-0.010362724
0.057228021
-0.011074158
0.058561948
-0.011773733
0.060013664
-0.012417048
0.061578456
-0.012998681
0.063252267
-0.013528368
0.065030659
-0.014009733
0.06690828
-0.014443079
0.068879037
-0.014829225
0.070936355
-0.015169421
0.073073332
-0.015464797
0.075282839
-0.015716374
0.077557598
-0.015925188
0.079890277
-0.016092351
0.082273569
-0.016219065
0.084700265
-0.016306646
0.087163317
-0.016356545
0.089655899
-0.016370354
0.092171459
-0.016349826
0.094703762
-0.016296862
0.097246939
-0.016213521
0.099795521
-0.016102005
0.10234447
-0.015964651
0.10488922
-0.015803922
0.10742567
-0.015622389
0.10995026
-0.01542273
0.11245993
-0.015207706
0.11495219
-0.01498017
0.11742511
-0.014743054
0.11987734
-0.014499386
0.12230816
-0.014252291
0.12471746
-0.014005024
0.12710582
-0.013761008
0.12947453
-0.01352388
0.13182566
-0.013297565
0.13416213
-0.013086398
0.1364878
-0.012895166
0.1388077
-0.012729596
0.14112799
-0.012595588
0.14345677
-0.012502892
0.14580288
-0.012455125
0.14818128
-0.012484403
0.15059931
-0.012548605
0.15310303
-0.012860336
0.15564919
-0.0129171
0.1584856
-0.014387165
-0.013631452
0.075657153
-0.0072157794
0.075785769
-0.0086534339
0.076035009
-0.0098570464
0.076361768
-0.010689482
0.076794337
-0.011506727
0.077349701
-0.012329097
0.078031042
-0.013098389
0.078838459
-0.013806098
0.079770427
-0.014460336
0.080823959
-0.015063265
0.081994984
-0.015614104
0.083278386
-0.016112628
0.084668172
-0.016559207
0.086157766
-0.016954391
0.087740209
-0.017298816
0.089408285
-0.017593265
0.091154638
-0.017838703
0.092971876
-0.018036302
0.094852673
-0.018187444
0.096789848
-0.018293719
0.098776433
-0.018356939
0.10080573
-0.018379126
0.10287139
-0.018362515
0.1049674
-0.018309532
0.10708819
-0.018222798
0.10922863
-0.018105093
0.11138407
-0.017959358
0.11355034
-0.017788665
0.11572383
-0.017596213
0.11790143
-0.017385307
0.12008061
-0.017159357
0.12225943
-0.016921875
0.12443653
-0.016676481
0.12661116
-0.01642692
0.12878323
-0.016177092
0.13095331
-0.015931097
0.13312273
-0.015693296
0.13529356
-0.015468394
0.13746875
-0.015261589
0.1396522
-0.01507862
0.14184895
-0.014926347
0.14406521
-0.014811842
0.14630906
-0.014746742
0.14858939
-0.014735458
0.15092092
-0.014815931
0.15331143
-0.014939115
0.15580438
-0.015353291
0.15836267
-0.015475392
0.16120792
-0.017232409
-0.016446125
0.098494837
-0.0063086746
0.097748826
-0.0079074228
0.097094935
-0.0092031548
0.096534408
-0.010128956
0.096103628
-0.011075948
0.09581394
-0.012039409
0.09567084
-0.012955289
0.095678502
-0.01381376
0.095836631
-0.014618465
0.096142126
-0.015368761
0.096590796
-0.016062774
0.09717741
-0.016699242
0.097895673
-0.01727747
0.098738551
-0.017797269
0.099698577
-0.018258843
0.10076801
-0.018662702
0.10193898
-0.019009672
0.10320358
-0.019300902
0.104554
-0.019537861
0.1059826
-0.019722316
0.10748198
-0.019856324
0.10904508
-0.019942223
0.11066518
-0.019982613
0.11233598
-0.019980337
0.11405165
-0.019938463
0.11580682
-0.019860264
0.11759665
-0.019749187
0.11941683
-0.019608845
0.1212636
-0.01944299
0.1231338
-0.0192555
0.12502482
-0.019050375
0.12693467
-0.018831729
0.12886199
-0.018603803
0.13080606
-0.018370984
0.1327668
-0.018137838
0.13474486
-0.01790916
0.13674162
-0.017690055
0.13875925
-0.017486024
0.1408008
-0.017303141
0.14287029
-0.017148105
0.14497286
-0.017028918
0.14711484
-0.016953827
0.14930444
-0.016936334
0.15155064
-0.016981667
0.15386804
-0.017133324
0.15626491
-0.01733599
0.15878201
-0.017870384
0.16138887
-0.018082258
0.16427901
-0.020122545
-0.019359315
0.11965379
-0.0045013344
0.11797911
-0.006232749
0.11635892
-0.0075829572
0.11487728
-0.0086473158
0.11357056
-0.0097692334
0.11243639
-0.01090524
0.11148036
-0.011999256
0.1107089
-0.013042298
0.11012158
-0.01403115
0.10971399
-0.014961165
0.10948047
-0.015829254
0.10941453
-0.016633308
0.10950878
-0.017371712
0.10975508
-0.018043573
0.11014493
-0.018648694
0.11066962
-0.019187389
0.11132036
-0.019660418
0.11208844
-0.020068978
0.11296527
-0.020414691
0.11394252
-0.020699564
0.11501216
-0.02092597
0.11616656
-0.021096621
0.1173985
-0.021214548
0.11870123
-0.021283067
0.12006852
-0.021305759
0.12149469
-0.021286435
0.12297462
-0.021229116
0.12450378
-0.021138
0.12607823
-0.021017444
0.12769468
-0.020871951
0.12935046
-0.020706148
0.13104353
-0.0205248
0.13277253
-0.020332807
0.13453678
-0.020135234
0.13633629
-0.019937348
0.1381718
-0.019744673
0.14004483
-0.019563085
0.14195772
-0.019398909
0.14391369
-0.019259115
0.14591698
-0.019151387
0.14797293
-0.019084876
0.15008812
-0.019069012
0.15227093
-0.019119147
0.1545306
-0.01924134
0.15688166
-0.01948438
0.15933297
-0.019787297
0.16192252
-0.020459941
0.16462674
-0.020786474
0.16761029
-0.023106095
-0.022418951
0.1373177
-0.0019347538
0.13481387
-0.0037289156
0.13227147
-0.0050405593
0.12993226
-0.0063081068
0.12782336
-0.0076603363
0.12592628
-0.0090081567
0.12424397
-0.01031695
0.12278165
-0.011579977
0.12153791
-0.01278741
0.12050715
-0.013930397
0.11968201
-0.015004121
0.11905434
-0.016005637
0.11861532
-0.016932688
0.11835561
-0.017783863
0.11826555
-0.01855864
0.11833537
-0.019257202
0.11855527
-0.019880326
0.11891563
-0.020429334
0.119407
-0.020906064
0.12002028
-0.021312835
0.1207467
-0.021652396
0.12157798
-0.021927902
0.12250632
-0.022142882
0.12352444
-0.022301189
0.12462566
-0.022406984
0.12580391
-0.022464687
0.12705375
-0.022478947
0.12837036
-0.022454618
0.12974964
-0.022396723
0.13118813
-0.022310443
0.13268308
-0.022201099
0.13423244
-0.022074153
0.13583485
-0.021935221
0.13748971
-0.021790092
0.13919714
-0.02164478
0.14095805
-0.021505583
0.14277415
-0.021379187
0.14464802
-0.021272773
0.14658315
-0.021194245
0.14858405
-0.021152292
0.15065642
-0.021157239
0.15280711
-0.021219703
0.15504484
-0.021356882
0.15737916
-0.021575659
0.15982466
-0.021929875
0.16239079
-0.022353433
0.16511288
-0.023182028
0.16797423
-0.023647822
0.17111042
-0.026242284
-0.025680957
0.15039999
0.00059295396
0.14712257
-0.00045149388
0.14383888
-0.0017568703
0.14080622
-0.0032754504
0.13802786
-0.0048819737
0.13549768
-0.0064779737
0.13321768
-0.0080369535
0.13118808
-0.0095503781
0.12940657
-0.011005896
0.12786809
-0.01239192
0.126565
-0.013701025
0.12548805
-0.014928693
0.12462727
-0.016071903
0.12397218
-0.017128771
0.123512
-0.018098463
0.12323585
-0.018981053
0.1231329
-0.019777372
0.12319249
-0.020488927
0.12340427
-0.02111784
0.12375823
-0.021666797
0.12424483
-0.022139001
0.12485505
-0.022538121
0.12558042
-0.02286825
0.1264131
-0.023133862
0.12734588
-0.023339769
0.12837227
-0.023491073
0.12948645
-0.023593134
0.13068336
-0.023651528
0.13195866
-0.023672022
0.13330876
-0.023660543
0.13473084
-0.023623173
0.13622282
-0.023566139
0.13778343
-0.023495829
0.13941216
-0.023418819
0.1411093
-0.023341921
0.14287597
-0.023272259
0.14471416
-0.023217373
0.14662673
-0.023185346
0.14861753
-0.023185048
0.15069145
-0.023226204
0.15285454
-0.023320337
0.15511409
-0.023479253
0.15747922
-0.023722009
0.1599598
-0.024056234
0.16257068
-0.024540758
0.16532157
-0.025104322
0.16824628
-0.026106735
0.17133132
-0.026732865
0.17469323
-0.029604197
-0.029202776
0.18943202
0.0051727554
-0.19401182
0.18564354
0.003336985
0.18227365
0.0016130199
0.17915174
-0.00015353576
0.17624044
-0.0019706761
0.1735148
-0.0037523284
0.17095673
-0.0054788921
0.1685574
-0.007151043
0.16631304
-0.0087615331
0.16422163
-0.010300512
0.16228147
-0.011760868
0.16049062
-0.013137843
0.15884661
-0.014427894
0.15734634
-0.015628502
0.1559861
-0.016738219
0.15476164
-0.017756588
0.15366826
-0.018684001
0.15270095
-0.019521617
0.15185441
-0.020271301
0.15112319
-0.020935569
0.15050172
-0.021517532
0.14998444
-0.022020842
0.14956583
-0.022449645
0.14924049
-0.022808523
0.14900318
-0.023102453
0.14884886
-0.023336751
0.14877276
-0.023517033
0.1487704
-0.02364917
0.14883763
-0.023739256
0.14897067
-0.023793578
0.1491661
-0.023818602
0.14942092
-0.023820965
0.14973259
-0.023807491
0.15009898
-0.023785213
0.15051849
-0.023761426
0.15098999
-0.023743764
0.15151293
-0.023740307
0.15208729
-0.023759712
0.15271372
-0.023811472
0.15339348
-0.023905972
0.15412865
-0.024055503
0.154922
-0.024272605
0.15577751
-0.024577516
0.15669947
-0.024978197
0.15769551
-0.025536795
0.15876886
-0.026177671
0.15994081
-0.027278685
0.16118952
-0.027981576
0.16261496
-0.031029639
-0.030663433
0.217363
0.008549063
-0.2207393
0.21391219
0.0067877933
0.21072273
0.0048024826
0.20764174
0.0029274456
0.2046205
0.0010505634
0.20169
-0.00082182802
0.19886725
-0.0026561389
0.1961569
-0.0044406899
0.19356498
-0.0061696126
0.19109847
-0.0078340049
0.18876274
-0.0094251421
0.18656137
-0.010936473
0.18449655
-0.012363066
0.18256917
-0.01370112
0.18077891
-0.014947968
0.17912441
-0.016102082
0.17760336
-0.017162952
0.17621273
-0.01813099
0.17494888
-0.01900745
0.17380769
-0.019794372
0.17278466
-0.020494508
0.17187508
-0.021111262
0.17107406
-0.021648628
0.17037667
-0.022111129
0.16977798
-0.022503758
0.16927315
-0.022831921
0.1688575
-0.023101388
0.16852657
-0.02331824
0.16827614
-0.02348883
0.16810232
-0.023619752
0.16800153
-0.023717817
0.16797061
-0.023790044
0.16800679
-0.023843672
0.16810776
-0.02388618
0.16827167
-0.023925342
0.16849721
-0.023969298
0.16878357
-0.024026671
0.16913056
-0.024106698
0.16953858
-0.024219492
0.17000871
-0.024376107
0.17054278
-0.024589568
0.17114337
-0.024873198
0.17181403
-0.025248176
0.17255914
-0.025723307
0.17338463
-0.026362289
0.17429637
-0.027089406
0.1753052
-0.028287517
0.17641186
-0.029088238
0.17764665
-0.032264426
-0.032001594
0.24423731
0.011252282
-0.24694053
0.24140879
0.009616308
0.23857798
0.0076332975
0.23575449
0.005750931
0.23290147
0.0039035798
0.23003968
0.0020399636
0.22720035
0.0001831985
0.22440288
-0.0016432271
0.22166335
-0.0034300781
0.2189978
-0.0051684595
0.21642025
-0.0068475934
0.21394187
-0.0084580872
0.21157144
-0.0099926401
0.20931574
-0.011445417
0.20717962
-0.012811848
0.20516621
-0.014088671
0.20327713
-0.015273875
0.20151272
-0.016366578
0.19987221
-0.017366937
0.1983539
-0.018276071
0.19695538
-0.019095983
0.1956736
-0.01982948
0.19450507
-0.020480096
0.19344596
-0.021052025
0.19249224
-0.021550042
0.19163976
-0.021979441
0.19088435
-0.022345972
0.19022189
-0.022655779
0.18964841
-0.022915356
0.18916016
-0.0231315
0.18875363
-0.023311288
0.18842565
-0.023462057
0.18817338
-0.02359141
0.18799444
-0.023707239
0.18788687
-0.023817767
0.1878492
-0.023931626
0.18788049
-0.024057967
0.18798039
-0.024206596
0.18814913
-0.024388237
0.18838763
-0.024614604
0.18869748
-0.024899416
0.1890811
-0.025256817
0.18954158
-0.02570866
0.19008339
-0.026265115
0.1907106
-0.026989498
0.19143194
-0.027810739
0.19224634
-0.029101924
0.19318048
-0.03002238
0.19418183
-0.033265774
-0.033185608
0.26969859
0.013267487
-0.2717138
0.26754948
0.011765417
0.2652275
0.0099552767
0.26280914
0.0081692954
0.26030265
0.0064100723
0.25771822
0.0046243867
0.25508201
0.0028194083
0.25241825
0.0010205399
0.24974701
-0.00075883854
0.24708826
-0.0025097165
0.24446143
-0.0042207589
0.24188378
-0.005880436
0.23937021
-0.0074790726
0.23693341
-0.0090086178
0.23458389
-0.010462329
0.23233006
-0.011834836
0.23017835
-0.01312217
0.22813346
-0.014321689
0.22619851
-0.015431984
0.22437524
-0.016452796
0.2226642
-0.017384944
0.22106495
-0.018230228
0.2195762
-0.018991352
0.21819601
-0.019671833
0.21692189
-0.020275926
0.21575099
-0.020808537
0.21468017
-0.021275152
0.21370616
-0.021681771
0.21282565
-0.022034842
0.21203536
-0.022341214
0.21133217
-0.022608096
0.21071315
-0.022843037
0.21017566
-0.023053919
0.20971739
-0.02324897
0.20933644
-0.023436812
0.20903133
-0.02362652
0.2088011
-0.02382774
0.20864533
-0.02405082
0.20856415
-0.024307061
0.20855837
-0.024608822
0.20862941
-0.024970456
0.20877953
-0.025406937
0.20901142
-0.025940549
0.20932951
-0.026583207
0.2097362
-0.027396183
0.21024239
-0.028316933
0.21083632
-0.029695853
0.21156673
-0.03075279
0.21230492
-0.034003963
-0.034178629
0.29335972
0.014585133
-0.29467736
0.29189493
0.013230204
0.29018801
0.011662192
0.28830607
0.010051241
0.28628417
0.0084319671
0.28413326
0.0067753003
0.28187179
0.0050808737
0.27952314
0.0033691956
0.27710869
0.0016556115
0.27464861
-4.9633124e-05
0.27216324
-0.001735394
0.26967254
-0.0033897393
0.267195
-0.005001532
0.26474739
-0.0065610025
0.26234464
-0.0080595809
0.25999975
-0.0094899452
0.25772373
-0.010846149
0.25552567
-0.012123635
0.25341287
-0.013319184
0.25139095
-0.014430867
0.24946398
-0.015457979
0.24763472
-0.016400969
0.24590473
-0.017261357
0.24427454
-0.018041645
0.24274385
-0.018745234
0.24131165
-0.01937634
0.2399764
-0.019939906
0.23873616
-0.020441527
0.2375887
-0.020887379
0.23653164
-0.021284159
0.23556258
-0.021639033
0.23467915
-0.02195961
0.23387915
-0.022253919
0.2331606
-0.022530422
0.23252183
-0.022798042
0.23196154
-0.023066229
0.23147886
-0.02334506
0.23107341
-0.023645371
0.23074535
-0.023978994
0.23049541
-0.024358884
0.23032492
-0.024799965
0.23023599
-0.025318011
0.23023097
-0.025935525
0.23031414
-0.026666384
0.23048647
-0.027568505
0.2307602
-0.028590669
0.23111464
-0.030050286
0.23161538
-0.031253539
0.23206911
-0.034457691
-0.03494666
0.31539875