/*--------------------------------*- C++ -*----------------------------------*\
  =========                 |
  \\      /  F ield         | OpenFOAM: The Open Source CFD Toolbox
   \\    /   O peration     | Website:  https://openfoam.org
    \\  /    A nd           | Version:  6
     \\/     M anipulation  |
\*---------------------------------------------------------------------------*/
FoamFile
{
    version     2.0;
    format      ascii;
    class       volScalarField;
    location    "68";
    object      p;
}
// * * * * * * * * * * * * * * * * * * * * * * * * * * * * * * * * * * * * * //

dimensions      [0 2 -2 0 0 0 0];

internalField   nonuniform List<scalar> 
9200
(
-0.38011953
-0.36876242
-0.35865967
-0.34970269
-0.34095568
-0.33243242
-0.32421116
-0.31625923
-0.30850908
-0.30088855
-0.29332447
-0.28574759
-0.27809956
-0.27034025
-0.26245831
-0.25448902
-0.24650875
-0.23860549
-0.23180337
-0.23038273
-0.39799407
-0.38418451
-0.37213719
-0.36165971
-0.35153999
-0.34175934
-0.33238642
-0.32335772
-0.31457346
-0.30593503
-0.29734901
-0.28873299
-0.28002314
-0.27118022
-0.26219513
-0.25309292
-0.24390362
-0.2346272
-0.22594605
-0.22002481
-0.41628529
-0.40000065
-0.38605489
-0.37412751
-0.36269046
-0.35167436
-0.34112651
-0.33094488
-0.32099549
-0.31115719
-0.30132548
-0.29141817
-0.28138214
-0.2711965
-0.26087242
-0.25044877
-0.23996459
-0.22942913
-0.21924137
-0.21051575
-0.43455862
-0.41581824
-0.40003958
-0.38672398
-0.37398981
-0.36170059
-0.34987444
-0.33837032
-0.32702802
-0.31571929
-0.3043494
-0.29286011
-0.28123286
-0.26948651
-0.25767063
-0.24585531
-0.23410742
-0.22246612
-0.21119878
-0.20104631
-0.45218341
-0.4310906
-0.41359598
-0.39896926
-0.38494751
-0.3713164
-0.35806474
-0.3450232
-0.33202593
-0.31896478
-0.30578452
-0.29247917
-0.2790878
-0.26568459
-0.25236538
-0.23923341
-0.22637903
-0.21386095
-0.20186741
-0.19090584
-0.46833437
-0.44509799
-0.42606321
-0.41021477
-0.39489867
-0.37982284
-0.36495926
-0.35013606
-0.33521596
-0.32014731
-0.30494735
-0.28968703
-0.27447668
-0.25944788
-0.24473514
-0.23046076
-0.21671959
-0.2035676
-0.19113081
-0.1797461
-0.48200548
-0.45695324
-0.43661578
-0.41964563
-0.40301465
-0.3863689
-0.36969148
-0.35284875
-0.33577659
-0.31851932
-0.30119479
-0.28396468
-0.26700966
-0.25050582
-0.23460588
-0.21942792
-0.2050477
-0.19149635
-0.1788407
-0.16728204
-0.49203206
-0.46562537
-0.44429605
-0.42632766
-0.40836773
-0.39003449
-0.37136488
-0.35231583
-0.33294487
-0.31342721
-0.29399865
-0.2749111
-0.25640089
-0.23866521
-0.22184902
-0.2060422
-0.1912819
-0.17755991
-0.16488506
-0.15334464
-0.49707104
-0.46983821
-0.44781705
-0.42892405
-0.40958096
-0.38944041
-0.36865326
-0.34732432
-0.32567231
-0.30401887
-0.28271104
-0.2620683
-0.24235174
-0.22374834
-0.20636896
-0.19025669
-0.17539931
-0.16174503
-0.14924868
-0.13789993
-0.49577134
-0.46817406
-0.44563024
-0.42576847
-0.40493168
-0.38289057
-0.35997544
-0.33648478
-0.31281223
-0.28940888
-0.26669564
-0.24501402
-0.22460706
-0.20561853
-0.1881048
-0.17205357
-0.15740369
-0.14406555
-0.13194714
-0.12095319
-0.2671313
-0.27180943
-0.27431946
-0.27507045
-0.27485513
-0.27386055
-0.27216821
-0.26986568
-0.2670252
-0.2637015
-0.25993864
-0.25577412
-0.25124104
-0.24636948
-0.2411877
-0.2357246
-0.23001107
-0.22406765
-0.21789333
-0.21157378
-0.26986724
-0.27412955
-0.27633246
-0.27686454
-0.27646599
-0.27531508
-0.27349139
-0.27107881
-0.268146
-0.26474486
-0.260917
-0.25669784
-0.25211857
-0.24720728
-0.24198961
-0.23649345
-0.23075716
-0.22479965
-0.21851341
-0.21187238
-0.27520295
-0.27865212
-0.28025633
-0.28036025
-0.27960245
-0.27814577
-0.27606626
-0.27344052
-0.27033026
-0.26678175
-0.26283179
-0.25851155
-0.25384846
-0.24886675
-0.24358722
-0.23803488
-0.23225953
-0.22627894
-0.21979353
-0.21254494
-0.28289803
-0.28518321
-0.28592089
-0.28539546
-0.28410429
-0.2821906
-0.27972647
-0.27677862
-0.2733991
-0.26962631
-0.26549019
-0.2610158
-0.25622504
-0.25113642
-0.24576394
-0.24012742
-0.23428861
-0.22826992
-0.22152517
-0.21342555
-0.29264956
-0.29347933
-0.29311425
-0.29177076
-0.28977711
-0.2872557
-0.2842754
-0.28089166
-0.27714507
-0.27306479
-0.2686725
-0.26398498
-0.25901658
-0.25377889
-0.24827778
-0.24252469
-0.23658933
-0.23050733
-0.22347331
-0.21434299
-0.30414319
-0.30328782
-0.30161862
-0.29928491
-0.296429
-0.29315383
-0.28952735
-0.28559393
-0.28138219
-0.2769096
-0.27218701
-0.26722194
-0.26201993
-0.25658411
-0.2509112
-0.24500132
-0.23892416
-0.23273476
-0.22539682
-0.2151294
-0.3170995
-0.31438333
-0.31124303
-0.30776801
-0.30390596
-0.29974357
-0.2953517
-0.2907633
-0.28599228
-0.28104359
-0.2759166
-0.27060751
-0.26511125
-0.25942139
-0.25352553
-0.24741198
-0.24114319
-0.23479684
-0.22716901
-0.21577357
-0.33130223
-0.32659061
-0.32184548
-0.31710609
-0.31212133
-0.30696459
-0.30170993
-0.29637812
-0.29096827
-0.28547089
-0.27987096
-0.27415039
-0.26829045
-0.26227259
-0.25607475
-0.24967628
-0.24313684
-0.23658004
-0.2287538
-0.21646221
-0.34659816
-0.33977714
-0.33331551
-0.32721248
-0.32101078
-0.31476919
-0.30856691
-0.30241196
-0.29628578
-0.29016125
-0.28400539
-0.2777816
-0.27145203
-0.26497779
-0.25831434
-0.2514137
-0.24430004
-0.23707957
-0.22849582
-0.21504587
-0.36288838
-0.35383514
-0.34554084
-0.33796962
-0.33044461
-0.32300976
-0.31574931
-0.30865622
-0.30169178
-0.29480955
-0.28795824
-0.28108449
-0.27413583
-0.26706067
-0.25980309
-0.25229859
-0.24449001
-0.23617082
-0.225691
-0.21000938
-0.20440822
-0.1954408
-0.18646758
-0.17755276
-0.16864258
-0.15977876
-0.15101496
-0.14238635
-0.13392232
-0.12565158
-0.11760001
-0.10978993
-0.10224054
-0.094968277
-0.087986808
-0.081307071
-0.074937402
-0.068883638
-0.063149205
-0.057735235
-0.052640686
-0.047862478
-0.04339565
-0.039233517
-0.035367853
-0.031789076
-0.028486436
-0.025448218
-0.022661927
-0.020114487
-0.017792419
-0.015682019
-0.013769517
-0.012041236
-0.010483723
-0.0090838821
-0.0078290986
-0.0067073272
-0.0057072923
-0.0048183203
-0.0040314412
-0.0033365111
-0.0027321594
-0.0021964628
-0.0017779513
-0.0013280963
-0.0012946545
-0.00043412475
-0.0024053112
0.003011459
-0.20542216
-0.19605684
-0.18697446
-0.17807415
-0.16914599
-0.16025198
-0.15146377
-0.1428129
-0.1343263
-0.12603322
-0.11795986
-0.11012836
-0.10255796
-0.095265153
-0.088263669
-0.081564511
-0.075176082
-0.069104276
-0.063352574
-0.057922149
-0.052811991
-0.048019045
-0.043538358
-0.039363251
-0.035485489
-0.031895478
-0.028582447
-0.025534653
-0.022739572
-0.020184092
-0.017854696
-0.015737639
-0.013819112
-0.012085391
-0.010522983
-0.009118749
-0.0078600312
-0.0067347429
-0.005731568
-0.0048397924
-0.0040504057
-0.0033532265
-0.0027468234
-0.0022092836
-0.0017888261
-0.001337644
-0.0013004377
-0.00044256286
-0.0023917333
0.0029795042
-0.20754841
-0.19733113
-0.18803113
-0.17919993
-0.17024834
-0.16129367
-0.15245788
-0.14376304
-0.13522942
-0.12688843
-0.11876749
-0.11088866
-0.10327126
-0.095932143
-0.088885309
-0.082141988
-0.075710792
-0.069597803
-0.063806657
-0.058338649
-0.053192861
-0.0483663
-0.04385405
-0.039649438
-0.035744221
-0.032128769
-0.028792263
-0.025722896
-0.022908068
-0.020334581
-0.017988826
-0.015856961
-0.013925075
-0.012179342
-0.010606166
-0.0091923055
-0.0079250031
-0.0067920738
-0.0057821066
-0.0048842942
-0.0040895344
-0.0033875574
-0.0027768081
-0.0022353678
-0.001810874
-0.001356842
-0.0013121281
-0.000459212
-0.0023649949
0.002916208
-0.21062709
-0.19903113
-0.18940991
-0.1807785
-0.1718379
-0.16280662
-0.15391681
-0.14517316
-0.13658058
-0.12817559
-0.11998934
-0.11204394
-0.10435899
-0.096952201
-0.089838289
-0.083029003
-0.076533417
-0.070358022
-0.064506793
-0.058981293
-0.053780812
-0.048902504
-0.044341551
-0.040091334
-0.036143615
-0.032488737
-0.029115823
-0.026012981
-0.023167503
-0.020566068
-0.018194927
-0.01604009
-0.014087491
-0.012323147
-0.010733301
-0.0093045524
-0.0080239873
-0.0068792674
-0.0058588327
-0.0049517297
-0.0041487131
-0.0034393743
-0.00282197
-0.0022745617
-0.00184393
-0.0013855174
-0.0013295805
-0.00048381865
-0.002325566
0.0028228504
-0.21442999
-0.20088505
-0.19084032
-0.18261095
-0.17376703
-0.16466195
-0.15572932
-0.1469533
-0.13830731
-0.12983507
-0.12157627
-0.11355414
-0.10578873
-0.098299188
-0.091101638
-0.084208861
-0.077630778
-0.071374626
-0.065445002
-0.059843973
-0.054571225
-0.049624216
-0.04499834
-0.040687118
-0.036682383
-0.03297449
-0.029552522
-0.026404504
-0.02351761
-0.02087837
-0.018472865
-0.016286917
-0.014306259
-0.012516699
-0.010904269
-0.0094553541
-0.0081568307
-0.0069961527
-0.0059615584
-0.0050418958
-0.004227725
-0.0035084484
-0.0028820697
-0.0023266174
-0.0018877416
-0.0014234035
-0.0013525987
-0.0005159741
-0.0022742321
0.0027014214
-0.2186079
-0.2026112
-0.1920521
-0.18446271
-0.17586207
-0.16671505
-0.15776211
-0.14898832
-0.1403158
-0.13178983
-0.12346394
-0.11536586
-0.10751663
-0.09993729
-0.092646191
-0.085657915
-0.078983806
-0.072632308
-0.066609052
-0.060916955
-0.055556385
-0.050525333
-0.045819599
-0.041432989
-0.03735752
-0.03358364
-0.030100448
-0.026895919
-0.023957121
-0.021270431
-0.018821745
-0.016596666
-0.014580692
-0.01275938
-0.011118503
-0.0096441846
-0.0083230388
-0.0071422608
-0.0060898356
-0.0051543618
-0.0043261541
-0.0035943766
-0.0029567144
-0.0023911526
-0.0019419385
-0.0014701295
-0.0013809182
-0.00055515887
-0.0022120008
0.0025545037
-0.22276127
-0.20402718
-0.19283285
-0.18605489
-0.17792118
-0.1688378
-0.15989904
-0.15116494
-0.14250913
-0.13396102
-0.12558653
-0.11742329
-0.10949569
-0.10182713
-0.094438907
-0.087348371
-0.080569084
-0.074111314
-0.067982244
-0.062186089
-0.05672427
-0.051595619
-0.046796586
-0.04232146
-0.038162595
-0.034310649
-0.03075482
-0.027483086
-0.024482441
-0.021739125
-0.019238838
-0.016966953
-0.014908703
-0.013049359
-0.011374396
-0.009869629
-0.0085213639
-0.0073164887
-0.0062426867
-0.0052882579
-0.0044432234
-0.0036964618
-0.0030452748
-0.0024675985
-0.0020060059
-0.0015252214
-0.0014142104
-0.00060081042
-0.0021400128
0.0023851109
-0.22662713
-0.20552813
-0.19340708
-0.18719978
-0.17972938
-0.17094204
-0.16209582
-0.15342626
-0.14482463
-0.13629227
-0.12789413
-0.1196805
-0.11168353
-0.10393016
-0.096445041
-0.089249047
-0.082358755
-0.075786884
-0.06954267
-0.063632065
-0.058057919
-0.052820215
-0.047916315
-0.043341203
-0.039087743
-0.035146933
-0.031508174
-0.028159519
-0.025087938
-0.022279558
-0.019719898
-0.017394091
-0.015287093
-0.013383862
-0.011669541
-0.010129603
-0.0087500011
-0.0075172748
-0.0064187614
-0.0054424174
-0.004577924
-0.0038138313
-0.0031469935
-0.0025552996
-0.0020793746
-0.001588182
-0.00145215
-0.00065239872
-0.0020594973
0.0021966616
-0.2278602
-0.20735595
-0.19446877
-0.18783282
-0.18085057
-0.17264623
-0.16407769
-0.15553823
-0.1470445
-0.13859
-0.1302225
-0.12199999
-0.11396576
-0.10615258
-0.098589071
-0.091300217
-0.08430647
-0.07762383
-0.071264325
-0.065236303
-0.059544648
-0.054191035
-0.049174202
-0.044490233
-0.040132836
-0.036093636
-0.03236246
-0.028927622
-0.025776202
-0.022894316
-0.020267372
-0.017880308
-0.015717818
-0.013764554
-0.012005313
-0.0104252
-0.0090097872
-0.0077452248
-0.0066184622
-0.005617067
-0.0047303328
-0.0039464346
-0.0032617137
-0.0026540038
-0.0021617359
-0.0016585863
-0.0014945079
-0.0007090367
-0.0019721007
0.0019936915
-0.21798894
-0.20659404
-0.19558128
-0.18748036
-0.18041006
-0.17298161
-0.16502097
-0.15684889
-0.14864439
-0.14043359
-0.1322443
-0.12413414
-0.11615874
-0.10836115
-0.10077732
-0.093438913
-0.086372688
-0.079600191
-0.073138184
-0.066999067
-0.061191169
-0.055719043
-0.050583797
-0.045783434
-0.041313182
-0.03716583
-0.033332065
-0.029800795
-0.026559471
-0.023594388
-0.020890973
-0.018434061
-0.016208137
-0.014197566
-0.0123868
-0.010760558
-0.0093040003
-0.0080028475
-0.006843615
-0.0058134297
-0.0049011467
-0.0040945081
-0.0033892853
-0.0027632086
-0.0022523764
-0.0017353298
-0.0015406205
-0.00076830217
-0.0018803876
0.0017821919
-0.19585167
-0.20053393
-0.19524527
-0.18632961
-0.17881396
-0.17179136
-0.16427522
-0.15640123
-0.14843526
-0.14044058
-0.13243686
-0.1244771
-0.11662073
-0.1089152
-0.10139963
-0.094108623
-0.087071912
-0.08031384
-0.073853695
-0.067706143
-0.061881544
-0.056386248
-0.051222935
-0.046390965
-0.041886734
-0.037704015
-0.033834318
-0.030267224
-0.026990726
-0.023991541
-0.02125542
-0.018767424
-0.016512193
-0.014474179
-0.012637864
-0.010987952
-0.0095095516
-0.0081882985
-0.0070105943
-0.0059634376
-0.0050354934
-0.0042144002
-0.0034953839
-0.002856774
-0.0023312885
-0.0018052408
-0.0015799882
-0.0008271399
-0.0017838635
0.0015708019
-0.18527943
-0.19107297
-0.187586
-0.17883935
-0.17162538
-0.16535596
-0.15864199
-0.15148364
-0.14417673
-0.13679636
-0.1293524
-0.12189351
-0.11448155
-0.10716766
-0.099994533
-0.093000572
-0.086219554
-0.079679831
-0.073404528
-0.067411954
-0.061715888
-0.05632586
-0.051247483
-0.046482803
-0.042030661
-0.037887044
-0.034045448
-0.030497234
-0.027231969
-0.024237758
-0.021501563
-0.019009498
-0.016747103
-0.014699595
-0.012852101
-0.011189857
-0.0096984026
-0.0083637203
-0.0071724678
-0.0061118531
-0.0051705936
-0.0043365563
-0.0036043653
-0.0029537445
-0.0024125536
-0.0018788579
-0.0016174914
-0.00089386972
-0.0016682502
0.0013409556
-0.17651496
-0.17970928
-0.1774187
-0.1703928
-0.16403159
-0.15845755
-0.15251181
-0.1460851
-0.13944384
-0.13268314
-0.12581501
-0.11888194
-0.11194454
-0.10505578
-0.098260449
-0.091599327
-0.085109098
-0.078821325
-0.072762426
-0.066953995
-0.061413034
-0.056152177
-0.05117999
-0.046501291
-0.042117499
-0.03802698
-0.034225403
-0.030706098
-0.027460403
-0.024478002
-0.021747254
-0.019255494
-0.016989321
-0.014934865
-0.013078023
-0.01140468
-0.0099009082
-0.0085531215
-0.0073483056
-0.0062739404
-0.0053188329
-0.0044711361
-0.0037248187
-0.0030611953
-0.0025026958
-0.0019605665
-0.0016589357
-0.00096781688
-0.0015395477
0.0010868429
-0.16680786
-0.16739627
-0.16555172
-0.16060302
-0.15547354
-0.15064362
-0.14549042
-0.13987694
-0.13398023
-0.12790113
-0.12166744
-0.1153197
-0.1089151
-0.10250723
-0.096142717
-0.089864336
-0.083711256
-0.077717998
-0.071914171
-0.06632465
-0.060969738
-0.055865329
-0.051023139
-0.046450997
-0.042153157
-0.038130631
-0.034381532
-0.030901423
-0.027683668
-0.02471977
-0.021999708
-0.019512244
-0.017245225
-0.015185857
-0.013320962
-0.011637199
-0.010121286
-0.0087601646
-0.0075412282
-0.0064522926
-0.0054823036
-0.0046197355
-0.0038579149
-0.0031797659
-0.0026021966
-0.0020498027
-0.0017051997
-0.0010450787
-0.0014063197
0.00082000522
-0.15620687
-0.15492025
-0.15309914
-0.14986554
-0.14603044
-0.14200676
-0.13765184
-0.13288371
-0.1277854
-0.1224398
-0.11689032
-0.11118015
-0.10536226
-0.099489064
-0.093608084
-0.087763363
-0.081995813
-0.076342342
-0.070835383
-0.065502879
-0.060368346
-0.055450951
-0.050765669
-0.046323505
-0.042131768
-0.03819436
-0.034512102
-0.031083065
-0.027902908
-0.024965216
-0.022261837
-0.019783194
-0.017518599
-0.015456531
-0.013584905
-0.011891316
-0.01036326
-0.0089883223
-0.0077544004
-0.0066497244
-0.0056634451
-0.0047843922
-0.0040053061
-0.0033106544
-0.0027119964
-0.0021467866
-0.0017571871
-0.0011240121
-0.0012748355
0.00054965153
-0.14438832
-0.14231494
-0.14061026
-0.13865083
-0.13598722
-0.13280072
-0.12923402
-0.12529159
-0.12099529
-0.1164008
-0.11155904
-0.10651485
-0.10131686
-0.096015082
-0.090656786
-0.08528623
-0.079944959
-0.074671281
-0.06949969
-0.064460622
-0.059580384
-0.054881134
-0.05038095
-0.046093966
-0.042030578
-0.038197681
-0.034598954
-0.031235157
-0.028104451
-0.025202723
-0.022523907
-0.02006031
-0.017802911
-0.015741661
-0.013865755
-0.012163883
-0.010624468
-0.0092358705
-0.0079866038
-0.006865404
-0.0058617104
-0.0049647471
-0.0041667621
-0.0034536477
-0.0028319954
-0.0022511414
-0.0018153757
-0.0012033076
-0.0011514176
0.00028552762
-0.13166423
-0.12972385
-0.12836897
-0.12732152
-0.12562185
-0.12324592
-0.12044046
-0.11727757
-0.11375397
-0.10989909
-0.1057629
-0.10139175
-0.096828716
-0.092118901
-0.087308196
-0.082440296
-0.077556345
-0.072694903
-0.067891524
-0.063178325
-0.058583746
-0.054132421
-0.049845145
-0.045738923
-0.041827083
-0.038119456
-0.034622585
-0.031339993
-0.028272456
-0.025418305
-0.022773731
-0.020333098
-0.018089238
-0.016033754
-0.014157289
-0.012449797
-0.010900779
-0.0094995019
-0.008235221
-0.0070972784
-0.0060754988
-0.0051595461
-0.0043413014
-0.0036079259
-0.0029616052
-0.0023621744
-0.0018800229
-0.0012817404
-0.0010425449
3.8150659e-05
-0.11875077
-0.11739293
-0.11652803
-0.11613643
-0.11519254
-0.1135525
-0.11145858
-0.10901358
-0.10621073
-0.10306175
-0.099608754
-0.095896131
-0.091963665
-0.087850641
-0.083598371
-0.079248888
-0.07484227
-0.070416356
-0.066006672
-0.061646049
-0.05736424
-0.053187663
-0.049139266
-0.045238478
-0.041501235
-0.03794007
-0.034564264
-0.03138004
-0.028390794
-0.025597356
-0.022998268
-0.020590068
-0.018367583
-0.016324212
-0.014452203
-0.01274292
-0.011187089
-0.0097750188
-0.0084968299
-0.0073425788
-0.0063025818
-0.0053669957
-0.0045274836
-0.0037723062
-0.0030999359
-0.0024790618
-0.0019512018
-0.0013584593
-0.00095400726
-0.0001823886
-0.10619072
-0.1055007
-0.10515258
-0.10525517
-0.10489956
-0.10389731
-0.10244559
-0.10064841
-0.098502297
-0.096009468
-0.09320225
-0.090119658
-0.086797039
-0.083269424
-0.079573261
-0.075746149
-0.071825981
-0.06784922
-0.063850478
-0.059862327
-0.055914936
-0.052035719
-0.048249097
-0.044576344
-0.041035533
-0.037641535
-0.034406093
-0.031337945
-0.028442998
-0.025724536
-0.023183455
-0.020818518
-0.018626623
-0.016603069
-0.014741828
-0.013035797
-0.011477054
-0.010057078
-0.0087669729
-0.007597618
-0.0065399319
-0.0055846257
-0.004723308
-0.0039451786
-0.0032457584
-0.0026008609
-0.0020287552
-0.0014331121
-0.0008900929
-0.00036777559
-0.094269247
-0.094165983
-0.094286855
-0.094777281
-0.094883216
-0.094416191
-0.093525584
-0.092301584
-0.090742994
-0.088847291
-0.086637712
-0.084146233
-0.081402951
-0.078437768
-0.075282744
-0.071971223
-0.068537043
-0.065014155
-0.061435556
-0.057832764
-0.05423551
-0.050671399
-0.047165588
-0.043740556
-0.040415948
-0.037208507
-0.034132058
-0.031197562
-0.028413223
-0.025784633
-0.023314963
-0.021005172
-0.01885424
-0.016859415
-0.015016462
-0.013319904
-0.01176327
-0.010339315
-0.0090402369
-0.007857839
-0.0067837504
-0.0058093046
-0.0049262236
-0.0041245154
-0.0033975207
-0.0027265239
-0.0021122748
-0.0015058162
-0.00085298072
-0.00051266478
-0.083126373
-0.083479516
-0.083983158
-0.084776316
-0.085243246
-0.085213604
-0.084798655
-0.08407071
-0.083028143
-0.081665526
-0.079998441
-0.078051493
-0.075849007
-0.073415593
-0.070778199
-0.067965875
-0.065008488
-0.061936285
-0.058779689
-0.055568463
-0.052331176
-0.049094858
-0.045884678
-0.042723644
-0.039632377
-0.036628958
-0.033728844
-0.030944847
-0.028287168
-0.025763484
-0.023379077
-0.021136998
-0.01903826
-0.017082046
-0.015265935
-0.013586127
-0.012037669
-0.010614672
-0.0093105176
-0.0081180232
-0.0070296298
-0.0060373643
-0.0051332265
-0.0043079428
-0.0035534039
-0.0028549155
-0.002201097
-0.0015770255
-0.00084241035
-0.00061554303
-0.072822377
-0.073503738
-0.074293952
-0.075312204
-0.076054393
-0.076372071
-0.076348353
-0.076038931
-0.075440086
-0.074543973
-0.073359844
-0.07190537
-0.070198998
-0.068260014
-0.066110165
-0.063773628
-0.061276125
-0.058644151
-0.055904714
-0.053085039
-0.050211869
-0.047310994
-0.044406904
-0.041522476
-0.038678689
-0.035894406
-0.033186217
-0.030568355
-0.028052657
-0.025648594
-0.023363331
-0.021201844
-0.019167061
-0.017260035
-0.015480132
-0.013825231
-0.012291929
-0.010875746
-0.0095713116
-0.008372532
-0.0072727486
-0.0062647535
-0.0053409785
-0.0044928239
-0.003711383
-0.0029848122
-0.0022942965
-0.0016473258
-0.00085571991
-0.00067902103
-0.063369069
-0.064271385
-0.06525941
-0.066431677
-0.067373629
-0.067957355
-0.068245078
-0.068278729
-0.068052135
-0.067555305
-0.066792266
-0.065774549
-0.064515022
-0.063027794
-0.061329518
-0.059439446
-0.057378754
-0.055169971
-0.052836529
-0.050402474
-0.047892079
-0.045329285
-0.042737288
-0.040138203
-0.037552761
-0.035000035
-0.032497227
-0.030059523
-0.027699992
-0.025429548
-0.023256959
-0.021188899
-0.019230043
-0.017383193
-0.015649425
-0.014028261
-0.012517844
-0.011115117
-0.0098160017
-0.0086155478
-0.0075080706
-0.0064871962
-0.0055459275
-0.0046763377
-0.0038692743
-0.0031148795
-0.0023906785
-0.001717203
-0.000888289
-0.00070939208
-0.054751569
-0.055790647
-0.056901924
-0.058166198
-0.059242174
-0.060020164
-0.06054655
-0.060852355
-0.060929361
-0.060765887
-0.06036174
-0.059723254
-0.058858309
-0.057776221
-0.056488836
-0.055010639
-0.053358255
-0.051549991
-0.049605503
-0.047545437
-0.045391084
-0.043163991
-0.040885508
-0.038576424
-0.036256639
-0.033944874
-0.031658414
-0.029412907
-0.027222209
-0.025098294
-0.023051198
-0.021089019
-0.01921796
-0.017442401
-0.015765009
-0.014186868
-0.01270762
-0.011325626
-0.010038108
-0.0088412947
-0.0077305319
-0.0067003424
-0.0057444229
-0.0048555524
-0.0040247761
-0.0032436428
-0.0024887834
-0.0017868464
-0.00093432595
-0.00071546115
-0.046939018
-0.048050537
-0.049225792
-0.050531035
-0.051685748
-0.052596362
-0.053297174
-0.053810746
-0.054127511
-0.054234712
-0.05412893
-0.053812289
-0.05328845
-0.052562525
-0.051642018
-0.05053699
-0.049259712
-0.047824316
-0.046246545
-0.044543475
-0.042733182
-0.040834403
-0.038866175
-0.036847462
-0.034796814
-0.03273207
-0.030670072
-0.028626432
-0.026615335
-0.024649391
-0.022739535
-0.020894972
-0.019123164
-0.017429856
-0.015819139
-0.014293535
-0.01285411
-0.011500589
-0.010231486
-0.0090442162
-0.0079351962
-0.0068998982
-0.0059328165
-0.0050274917
-0.0041755041
-0.0033694681
-0.0025869199
-0.0018560361
-0.00098783584
-0.00070688424
-0.039889971
-0.041026108
-0.042220212
-0.043526649
-0.044715517
-0.045707544
-0.046527899
-0.047192716
-0.047691791
-0.048011944
-0.048147482
-0.048097315
-0.04786173
-0.047442345
-0.046842931
-0.046069629
-0.045130723
-0.044036403
-0.042798593
-0.041430755
-0.039947621
-0.038364903
-0.036698984
-0.034966599
-0.033184508
-0.03136919
-0.029536559
-0.027701707
-0.02587868
-0.02408029
-0.022317972
-0.020601682
-0.018939833
-0.017339279
-0.015805324
-0.014341768
-0.012950974
-0.011633956
-0.010390471
-0.0092191107
-0.0081173763
-0.00708173
-0.0061075469
-0.0051891953
-0.0043190309
-0.0034905699
-0.002683235
-0.0019241365
-0.0010435333
-0.00069242906
-0.033556951
-0.034683392
-0.035863386
-0.037141561
-0.038330147
-0.039362504
-0.040257012
-0.041025039
-0.04165635
-0.042137934
-0.042462692
-0.042627247
-0.042629363
-0.042467924
-0.042143665
-0.04165941
-0.04101996
-0.040231948
-0.039303744
-0.038245328
-0.037068108
-0.035784688
-0.034408619
-0.032954129
-0.031435842
-0.029868486
-0.028266621
-0.026644373
-0.025015202
-0.023391687
-0.021785354
-0.02020653
-0.018664244
-0.01716616
-0.015718547
-0.014326276
-0.012992851
-0.011720456
-0.010510012
-0.0093612444
-0.008272733
-0.0072419502
-0.0062652112
-0.0053377759
-0.0044529331
-0.0036050507
-0.0027758133
-0.0019901822
-0.0010974692
-0.00067863053
-0.027889871
-0.028983141
-0.030126116
-0.031355422
-0.032518325
-0.033559266
-0.034491637
-0.035323341
-0.036044584
-0.036642999
-0.037110812
-0.037443178
-0.037636126
-0.037686552
-0.037592862
-0.037355229
-0.036975555
-0.036457408
-0.035805993
-0.035028094
-0.034131962
-0.033127158
-0.032024363
-0.030835161
-0.029571816
-0.028247017
-0.026873623
-0.025464416
-0.024031867
-0.022587914
-0.021143767
-0.019709744
-0.018295131
-0.016908082
-0.015555546
-0.014243226
-0.012975569
-0.011755774
-0.010585815
-0.009466477
-0.0083973798
-0.0073770039
-0.0064026374
-0.0054704807
-0.0045748477
-0.0037109679
-0.0028627833
-0.0020530137
-0.0011472254
-0.00066918134
-0.022838341
-0.023883478
-0.024974609
-0.026141746
-0.027261288
-0.028287316
-0.02922958
-0.030093504
-0.030870058
-0.031547858
-0.032119024
-0.032577925
-0.032919534
-0.033139437
-0.033234388
-0.033202563
-0.033043579
-0.032758492
-0.03234982
-0.031821541
-0.031179044
-0.03042904
-0.029579435
-0.028639173
-0.027618065
-0.026526581
-0.025375642
-0.024176391
-0.022939972
-0.021677321
-0.020398963
-0.019114835
-0.017834123
-0.016565137
-0.015315201
-0.014090585
-0.012896448
-0.011736816
-0.010614568
-0.0095314398
-0.0084880271
-0.0074837854
-0.0065169779
-0.0055847714
-0.0046825441
-0.0038064192
-0.0029424063
-0.0021114158
-0.0011916952
-0.00066513257
-0.01835355
-0.019342128
-0.02037293
-0.021470441
-0.022535311
-0.023529958
-0.024461457
-0.025333477
-0.026137943
-0.026864652
-0.027506036
-0.028056202
-0.028509618
-0.028861136
-0.029106453
-0.029242357
-0.029266774
-0.029178813
-0.02897882
-0.028668423
-0.028250532
-0.027729306
-0.027110086
-0.026399301
-0.025604338
-0.024733399
-0.023795333
-0.022799446
-0.021755308
-0.02067256
-0.019560722
-0.018429014
-0.017286188
-0.016140379
-0.01499898
-0.013868542
-0.012754684
-0.011662044
-0.01059423
-0.0095537898
-0.0085421935
-0.0075598102
-0.0066058485
-0.0056784384
-0.0047740218
-0.0038896434
-0.0030131439
-0.0021642275
-0.0012306144
-0.0006656802
-0.014389337
-0.01531785
-0.016284701
-0.0173097
-0.018313719
-0.019266347
-0.020172676
-0.021035123
-0.021846643
-0.02259831
-0.023283134
-0.023895332
-0.024429291
-0.024879581
-0.025241337
-0.025510483
-0.025683794
-0.025758964
-0.02573468
-0.025610698
-0.025387877
-0.025068196
-0.02465473
-0.024151606
-0.023563937
-0.022897716
-0.022159696
-0.021357257
-0.020498241
-0.019590787
-0.01864316
-0.017663584
-0.016660078
-0.015640303
-0.014611422
-0.013579982
-0.012551805
-0.011531905
-0.010524417
-0.0095325415
-0.008558491
-0.0076034553
-0.0066675271
-0.0057497654
-0.0048476445
-0.0039591405
-0.0030737139
-0.0022104227
-0.0012640804
-0.00066914343
-0.010903729
-0.011772203
-0.012675056
-0.013628075
-0.014569031
-0.015473654
-0.016345539
-0.017186195
-0.017989598
-0.018748098
-0.019455433
-0.020106178
-0.020694926
-0.0212163
-0.021665259
-0.022037286
-0.022328463
-0.022535537
-0.022656012
-0.022688235
-0.022631454
-0.022485865
-0.022252628
-0.021933864
-0.021532632
-0.02105287
-0.020499325
-0.019877458
-0.019193325
-0.018453448
-0.01766467
-0.01683401
-0.015968515
-0.015075111
-0.014160466
-0.013230856
-0.01229205
-0.011349204
-0.01040677
-0.0094684104
-0.0085369348
-0.0076142322
-0.006701189
-0.0057977301
-0.0049023047
-0.004013808
-0.0031231542
-0.0022491776
-0.0012922344
-0.00067376993
-0.0078588369
-0.0086699329
-0.0095114406
-0.010395656
-0.011274486
-0.012128898
-0.012961328
-0.013772599
-0.014557646
-0.015310028
-0.016024268
-0.016695433
-0.017318506
-0.017888385
-0.018400128
-0.018849101
-0.01923105
-0.01954217
-0.019779192
-0.019939471
-0.020021059
-0.020022769
-0.019944214
-0.019785843
-0.019548939
-0.019235617
-0.01884878
-0.018392071
-0.017869798
-0.017286841
-0.016648542
-0.01596059
-0.015228889
-0.014459434
-0.013658174
-0.012830888
-0.011983057
-0.011119755
-0.010245538
-0.0093643473
-0.0084794175
-0.0075931994
-0.0067072589
-0.0058222978
-0.0049376621
-0.0040531272
-0.0031609323
-0.0022799577
-0.0013151705
-0.00067819351
-0.0052224866
-0.0059804055
-0.0067648932
-0.0075851565
-0.0084049213
-0.0092096103
-0.010000739
-0.010778593
-0.011538961
-0.012276508
-0.012986526
-0.013664632
-0.01430629
-0.014906805
-0.015461507
-0.015965871
-0.016415575
-0.016806563
-0.017135124
-0.017397975
-0.017592339
-0.017716011
-0.017767421
-0.017745677
-0.0176506
-0.017482747
-0.017243402
-0.016934563
-0.016558905
-0.016119727
-0.015620875
-0.015066659
-0.014461752
-0.013811086
-0.013119732
-0.012392789
-0.011635259
-0.010851934
-0.01004728
-0.0092253317
-0.0083895829
-0.0075428962
-0.0066873871
-0.005824426
-0.0049541595
-0.004077182
-0.003186945
-0.0023025209
-0.0013329321
-0.0006815297
-0.0029693044
-0.0036798427
-0.0044132626
-0.0051761271
-0.0059419814
-0.0066999803
-0.0074508917
-0.0081945624
-0.0089275202
-0.0096453954
-0.010344194
-0.011020076
-0.01166901
-0.012286764
-0.012869037
-0.013411549
-0.013910088
-0.014360564
-0.014759075
-0.015101983
-0.015385983
-0.015608174
-0.015766123
-0.015857923
-0.015882244
-0.01583837
-0.015726226
-0.015546387
-0.015300075
-0.014989135
-0.014616003
-0.014183647
-0.0136955
-0.01315538
-0.012567395
-0.011935846
-0.011265116
-0.010559564
-0.009823406
-0.0090606057
-0.008274761
-0.0074689985
-0.006645849
-0.0058072302
-0.0049539792
-0.0040874249
-0.0032021198
-0.0023173816
-0.0013459219
-0.00068349526
-0.0010750721
-0.0017440488
-0.0024326153
-0.0031449412
-0.0038626733
-0.0045780905
-0.0052913523
-0.0060019333
-0.0067069736
-0.0074029251
-0.0080864194
-0.008754118
-0.0094024687
-0.010027701
-0.010625913
-0.011193136
-0.011725372
-0.012218634
-0.012669002
-0.013072684
-0.013426082
-0.013725852
-0.013968973
-0.014152806
-0.014275153
-0.014334306
-0.014329095
-0.014258916
-0.014123753
-0.013924185
-0.013661379
-0.013337065
-0.012953492
-0.012513386
-0.012019872
-0.011476402
-0.010886661
-0.010254469
-0.0095836736
-0.0088780385
-0.0081411302
-0.0073762046
-0.0065860762
-0.0057730859
-0.0049386418
-0.0040847072
-0.0032068133
-0.0023245149
-0.0013539249
-0.00068363427
0.00045662046
-0.00017858258
-0.00083030936
-0.0015009661
-0.0021786563
-0.0028581159
-0.0035390025
-0.0042204887
-0.0049002048
-0.0055752682
-0.0062428284
-0.006899973
-0.0075435712
-0.0081702687
-0.0087765428
-0.0093587453
-0.0099131284
-0.010435879
-0.01092316
-0.011371161
-0.011776154
-0.012134548
-0.012442951
-0.01269823
-0.012897571
-0.013038537
-0.013119125
-0.013137808
-0.013093577
-0.012985966
-0.012815067
-0.012581542
-0.012286601
-0.011931977
-0.011519886
-0.011052965
-0.010534203
-0.0099668548
-0.0093543476
-0.0087001735
-0.0080077775
-0.0072804439
-0.0065211604
-0.0057325761
-0.0049165506
-0.0040755677
-0.0032060019
-0.0023275919
-0.0013595261
-0.00068326669
0.0016672151
0.0010597765
0.00043819281
-0.0001983043
-0.00084287337
-0.001492219
-0.0021456092
-0.0028019623
-0.0034592794
-0.0041151965
-0.0047672736
-0.0054129416
-0.0060494151
-0.0066736893
-0.0072825695
-0.0078726977
-0.0084405712
-0.0089825687
-0.0094949816
-0.009974056
-0.010416036
-0.010817213
-0.011173984
-0.011482902
-0.011740743
-0.011944559
-0.012091744
-0.012180085
-0.012207814
-0.012173651