/*--------------------------------*- C++ -*----------------------------------*\
  =========                 |
  \\      /  F ield         | OpenFOAM: The Open Source CFD Toolbox
   \\    /   O peration     | Website:  https://openfoam.org
    \\  /    A nd           | Version:  6
     \\/     M anipulation  |
\*---------------------------------------------------------------------------*/
FoamFile
{
    version     2.0;
    format      ascii;
    class       volScalarField;
    location    "323";
    object      pMean;
}
// * * * * * * * * * * * * * * * * * * * * * * * * * * * * * * * * * * * * * //

dimensions      [0 2 -2 0 0 0 0];

internalField   nonuniform List<scalar> 
9200
(
-0.3878497
-0.37613087
-0.36568319
-0.35643738
-0.34739863
-0.33857464
-0.33004649
-0.32178001
-0.31370568
-0.30575037
-0.2978408
-0.28990846
-0.28189664
-0.27376759
-0.26551284
-0.25717066
-0.24882035
-0.24055201
-0.23337963
-0.23154159
-0.4060186
-0.39184972
-0.37946228
-0.36869193
-0.35827018
-0.34817331
-0.33847282
-0.32910421
-0.31996663
-0.31096173
-0.30199746
-0.29299382
-0.28389029
-0.27465164
-0.26527315
-0.25578416
-0.24621897
-0.23658123
-0.22754891
-0.22127265
-0.42455782
-0.40792351
-0.39364704
-0.38142431
-0.36967415
-0.35832342
-0.34742275
-0.33687036
-0.32653301
-0.3162919
-0.30604616
-0.2957182
-0.2852602
-0.27465688
-0.2639248
-0.25310771
-0.24224881
-0.23136047
-0.22084125
-0.21180533
-0.44302077
-0.42394648
-0.4078494
-0.39423588
-0.38117526
-0.36852908
-0.35632011
-0.34440984
-0.33264158
-0.32089242
-0.309074
-0.29713509
-0.28506417
-0.27288663
-0.26065764
-0.24845166
-0.23633855
-0.22435897
-0.2127809
-0.20234861
-0.46076448
-0.43935938
-0.42156074
-0.40663277
-0.39226868
-0.37825478
-0.36458693
-0.35110171
-0.33764055
-0.32410406
-0.31044629
-0.29667023
-0.28282294
-0.26898509
-0.25525725
-0.24174556
-0.22854157
-0.21570356
-0.20342015
-0.19220286
-0.47695225
-0.45343076
-0.43410778
-0.41795358
-0.40227693
-0.38679009
-0.37147575
-0.35617234
-0.34075419
-0.32518195
-0.30948445
-0.2937427
-0.27807487
-0.26261793
-0.24750939
-0.2328725
-0.21880132
-0.2053497
-0.1926433
-0.1810223
-0.49056835
-0.46526316
-0.44465421
-0.42737271
-0.41036155
-0.3932761
-0.37611493
-0.35875989
-0.34116285
-0.32338337
-0.30555233
-0.28784133
-0.27043765
-0.25352084
-0.23724448
-0.22172555
-0.20703736
-0.19320774
-0.18030235
-0.16852432
-0.50044071
-0.47381753
-0.45223409
-0.43394833
-0.41558873
-0.39678897
-0.37760717
-0.35802116
-0.33810842
-0.3180614
-0.29812904
-0.27857197
-0.25963101
-0.24150447
-0.22433598
-0.20821261
-0.19316783
-0.17918953
-0.16628468
-0.15454074
-0.50522111
-0.47781072
-0.45555253
-0.43633628
-0.41657628
-0.39594774
-0.37462865
-0.35274958
-0.33055197
-0.30837521
-0.28657834
-0.26548736
-0.24536541
-0.22639828
-0.20869373
-0.19229081
-0.17717298
-0.16328442
-0.15057753
-0.13904055
-0.50355731
-0.47582102
-0.45305594
-0.43286635
-0.41160075
-0.38905981
-0.36560621
-0.34156746
-0.31736079
-0.2934539
-0.27027744
-0.24817686
-0.22739494
-0.20807256
-0.19026188
-0.173946
-0.15905936
-0.14550848
-0.13319848
-0.12203103
-0.27176719
-0.27627657
-0.27852808
-0.27905216
-0.27859751
-0.27734146
-0.27537274
-0.27278295
-0.26964584
-0.26601768
-0.26194419
-0.25746449
-0.25261323
-0.24742199
-0.24192055
-0.23613937
-0.23011095
-0.22385742
-0.21737911
-0.21076452
-0.27460538
-0.27868702
-0.28062548
-0.28092844
-0.28028968
-0.27887782
-0.27677957
-0.2740825
-0.27085658
-0.26715508
-0.26302118
-0.25849179
-0.25359955
-0.24837396
-0.24284212
-0.23703333
-0.23098755
-0.22472522
-0.21813883
-0.211202
-0.28013618
-0.28338321
-0.28471253
-0.2845831
-0.28358355
-0.28186699
-0.27951625
-0.27661104
-0.27321397
-0.2693724
-0.26512442
-0.26050247
-0.25553524
-0.25024821
-0.24466346
-0.23880725
-0.23273076
-0.22645344
-0.21967451
-0.21213021
-0.28810294
-0.29015798
-0.29060711
-0.28984217
-0.28830659
-0.2861337
-0.28340187
-0.28018015
-0.27652096
-0.27246337
-0.26803825
-0.26327159
-0.25818629
-0.25280189
-0.24713349
-0.24120192
-0.23506993
-0.22876185
-0.22173107
-0.21333856
-0.29818255
-0.29875133
-0.29808253
-0.29649176
-0.29424952
-0.2914683
-0.28822264
-0.28456948
-0.28054921
-0.27619113
-0.27151736
-0.26654527
-0.26128987
-0.25576353
-0.24997306
-0.24393073
-0.2377068
-0.23133902
-0.22402494
-0.21460846
-0.31004002
-0.30889362
-0.3069058
-0.30431598
-0.30120574
-0.2976683
-0.29377662
-0.28957581
-0.2850936
-0.28034707
-0.27534709
-0.27010131
-0.26461561
-0.25889368
-0.25293306
-0.24673466
-0.24036837
-0.23389137
-0.22627561
-0.21573229
-0.32337774
-0.32034418
-0.31687231
-0.3131321
-0.30900875
-0.30457967
-0.29992018
-0.29506316
-0.29002107
-0.284798
-0.27939286
-0.27380164
-0.26801932
-0.26203986
-0.25585168
-0.24944408
-0.24287966
-0.23623818
-0.22832993
-0.21667092
-0.33796468
-0.33291506
-0.3278288
-0.32281595
-0.31756241
-0.31213295
-0.30660557
-0.30100034
-0.29531444
-0.28953713
-0.28365254
-0.27764209
-0.27148694
-0.26516892
-0.25866691
-0.25196158
-0.24511318
-0.23824745
-0.23013161
-0.21758674
-0.35363589
-0.34646262
-0.33965416
-0.33327058
-0.32679226
-0.32027022
-0.31378715
-0.30734988
-0.30093765
-0.29452179
-0.28806833
-0.28154017
-0.27489946
-0.26810796
-0.26112254
-0.25389718
-0.24645748
-0.23891212
-0.23002648
-0.21632863
-0.37028314
-0.36086873
-0.3522248
-0.34436635
-0.33655582
-0.32883027
-0.3212771
-0.31388785
-0.30662156
-0.29943033
-0.29226208
-0.2850633
-0.2777821
-0.27036825
-0.26276802
-0.2549199
-0.24676997
-0.23811704
-0.22733521
-0.21142312
-0.20327268
-0.19393631
-0.18461702
-0.17538647
-0.16618844
-0.15706389
-0.14806801
-0.13923659
-0.1305986
-0.12218213
-0.1140124
-0.10611078
-0.098495259
-0.091180867
-0.084179726
-0.077501117
-0.071151622
-0.065135265
-0.059453634
-0.054106025
-0.049089585
-0.04439948
-0.040029064
-0.035970068
-0.032212786
-0.028746282
-0.025558587
-0.022636908
-0.019967817
-0.017537456
-0.015331709
-0.013336387
-0.011537378
-0.0099208034
-0.0084731487
-0.007181391
-0.0060331183
-0.0050166242
-0.0041210842
-0.0033364643
-0.002654385
-0.0020659989
-0.0015696451
-0.001148343
-0.00084089874
-0.00053109153
-0.0005819153
1.5731515e-05
-0.0017723171
0.0026393556
-0.20443521
-0.19468214
-0.18524349
-0.17602182
-0.16679834
-0.15763532
-0.14860742
-0.13974669
-0.13107932
-0.12263401
-0.11443637
-0.10650763
-0.098865755
-0.091525843
-0.08450008
-0.077797796
-0.071425623
-0.065387629
-0.05968544
-0.054318373
-0.049283592
-0.044576266
-0.040189742
-0.036115736
-0.032344519
-0.028865124
-0.025665548
-0.022732952
-0.020053867
-0.017614384
-0.01540034
-0.01339749
-0.011591672
-0.0099689554
-0.0085157736
-0.0072190528
-0.0060663317
-0.0050458557
-0.0041467541
-0.0033589476
-0.0026740119
-0.0020830582
-0.0015843647
-0.00116095
-0.00085134682
-0.00053994319
-0.00058705043
8.5859497e-06
-0.001759107
0.0026103811
-0.20683226
-0.19619458
-0.18652052
-0.17735877
-0.16809898
-0.1588605
-0.14977128
-0.1408537
-0.13212677
-0.12362148
-0.11536488
-0.10737807
-0.099679124
-0.092283492
-0.085203641
-0.078449109
-0.072026718
-0.0659407
-0.060192805
-0.054782445
-0.04970684
-0.044961189
-0.04053884
-0.036431483
-0.032629345
-0.029121393
-0.025895542
-0.022938863
-0.020237781
-0.017778275
-0.015546067
-0.013526791
-0.011706165
-0.010070134
-0.0086050142
-0.0072976133
-0.0061353564
-0.0051063787
-0.0041997036
-0.0034051495
-0.0027141925
-0.0021178485
-0.0016142717
-0.0011864564
-0.0008724196
-0.00055767063
-0.00059737505
-5.4793952e-06
-0.0017330749
0.0025530244
-0.21025048
-0.19819796
-0.18818238
-0.17921081
-0.16994779
-0.16061516
-0.15145514
-0.14247284
-0.13367122
-0.12508656
-0.11674989
-0.10868248
-0.1009027
-0.093426901
-0.086268275
-0.079436895
-0.072940038
-0.066782324
-0.060965817
-0.055490165
-0.050352759
-0.045548905
-0.041072008
-0.036913763
-0.033064364
-0.029512708
-0.026246608
-0.02325301
-0.020518193
-0.018027977
-0.015767909
-0.013723447
-0.011880124
-0.010223701
-0.0087403094
-0.0074165772
-0.0062397536
-0.0051978034
-0.0042795864
-0.0034747622
-0.002774653
-0.0021701267
-0.0016591497
-0.0012246712
-0.00090394777
-0.00058412389
-0.00061279378
-2.628253e-05
-0.0016947709
0.0024684988
-0.21440416
-0.20037725
-0.18992076
-0.18134228
-0.17216382
-0.16274116
-0.15352165
-0.14449073
-0.13561938
-0.12695112
-0.11852588
-0.11036628
-0.10249119
-0.094918509
-0.087662893
-0.080735492
-0.074144454
-0.067895145
-0.061990245
-0.056429884
-0.051211818
-0.046331619
-0.041782864
-0.037557344
-0.033645273
-0.030035513
-0.026715792
-0.023672923
-0.020893024
-0.018361723
-0.016064357
-0.013986157
-0.012112421
-0.010428669
-0.008920793
-0.0075751811
-0.0063788486
-0.0053195327
-0.0043858735
-0.0035673173
-0.002854979
-0.0022395272
-0.0017186761
-0.0012753111
-0.00094568548
-0.00061908096
-0.00063318798
-5.3528358e-05
-0.0016450897
0.0023586889
-0.2188962
-0.20241683
-0.19143637
-0.18348826
-0.17454453
-0.1650685
-0.15581482
-0.14677157
-0.13785877
-0.12912144
-0.12061361
-0.1123627
-0.10438881
-0.096711836
-0.089348796
-0.082312734
-0.07561328
-0.06925705
-0.063247772
-0.057586425
-0.052271436
-0.047298883
-0.042662713
-0.038354963
-0.034365984
-0.030684683
-0.027298753
-0.024194909
-0.021359113
-0.018776794
-0.016433058
-0.014312876
-0.01240127
-0.010683477
-0.0091450946
-0.0077722207
-0.0065515827
-0.0054706362
-0.0045177481
-0.0036820987
-0.0029545439
-0.0023255031
-0.0017923752
-0.0013379647
-0.00099728314
-0.0006622353
-0.00065839668
-8.6842359e-05
-0.0015851815
0.0022260462
-0.22329824
-0.20411497
-0.19250174
-0.18535244
-0.17686884
-0.16745093
-0.15820224
-0.14918706
-0.14027846
-0.13150573
-0.12293537
-0.11460507
-0.1065386
-0.098758401
-0.091284634
-0.084133249
-0.077316203
-0.070842013
-0.064716005
-0.058940482
-0.053514929
-0.048436251
-0.043699022
-0.039295726
-0.035217011
-0.031451946
-0.027988273
-0.024812661
-0.021910947
-0.01926837
-0.016869796
-0.01469992
-0.012743458
-0.010985322
-0.0094107754
-0.0080055785
-0.0067561218
-0.0056495298
-0.0046738467
-0.0038179377
-0.0030723505
-0.0024272084
-0.0018795336
-0.0014120375
-0.0010582542
-0.00071318784
-0.00068821255
-0.00012582188
-0.0015163662
0.0020734449
-0.22733153
-0.20585348
-0.19333685
-0.18674671
-0.17891812
-0.16979318
-0.16063172
-0.1516725
-0.14280781
-0.13403954
-0.12543334
-0.11703982
-0.10889087
-0.10101276
-0.093429205
-0.086159851
-0.079219817
-0.072620173
-0.066368372
-0.060468495
-0.054921476
-0.049725374
-0.044875658
-0.040365479
-0.036185957
-0.032326459
-0.028774879
-0.025517913
-0.022541319
-0.019830177
-0.017369119
-0.015142557
-0.013134883
-0.011330658
-0.0097147794
-0.0082726294
-0.0069902207
-0.0058543028
-0.004852553
-0.0039734763
-0.0032072671
-0.0025437097
-0.0019793894
-0.0014969196
-0.0011281226
-0.00077157274
-0.00072248357
-0.00017012991
-0.0014401056
0.0019041382
-0.22865702
-0.20784208
-0.19460645
-0.18759915
-0.18025759
-0.17171403
-0.16282823
-0.15399463
-0.14523093
-0.13653186
-0.12794631
-0.1195329
-0.11133498
-0.10338498
-0.095710854
-0.088336601
-0.081281399
-0.074559753
-0.068182021
-0.062154759
-0.056480985
-0.051160472
-0.046190069
-0.04156401
-0.037274233
-0.033310691
-0.029661659
-0.02631404
-0.023253655
-0.020465516
-0.017934093
-0.015643551
-0.013577978
-0.011721581
-0.010058874
-0.0085748355
-0.007255066
-0.0060858994
-0.0050546022
-0.0041492723
-0.0033597027
-0.002675291
-0.0020921238
-0.0015927008
-0.0012069216
-0.00083731341
-0.00076130792
-0.0002192458
-0.0013582784
0.0017223665
-0.21894804
-0.20717152
-0.19582507
-0.18740243
-0.18000039
-0.17224292
-0.16397086
-0.15550794
-0.14703295
-0.13857348
-0.13015938
-0.1218495
-0.11370004
-0.10575419
-0.098047661
-0.090611495
-0.083471489
-0.076647942
-0.070156142
-0.06400684
-0.058206597
-0.052758126
-0.047660675
-0.042910398
-0.038500733
-0.034422762
-0.030665573
-0.027216611
-0.024062004
-0.021186885
-0.018575683
-0.0162124
-0.014080858
-0.012164928
-0.010448732
-0.008916821
-0.007554345
-0.0063471778
-0.0052821243
-0.0043468211
-0.003530605
-0.0028224291
-0.002217822
-0.0016991217
-0.0012941782
-0.00090959096
-0.00080423256
-0.00027122775
-0.0012733318
0.0015337535
-0.19707018
-0.20113378
-0.19544267
-0.18624816
-0.17843271
-0.17109451
-0.16327693
-0.15512168
-0.14689275
-0.13865454
-0.13042917
-0.12227121
-0.11424084
-0.10638585
-0.098745353
-0.091353551
-0.084239408
-0.077426198
-0.070931885
-0.064769626
-0.058948122
-0.053471975
-0.048342073
-0.043555987
-0.039108356
-0.034991275
-0.031194668
-0.027706658
-0.024513913
-0.021601979
-0.018955595
-0.016558977
-0.014396083
-0.012450852
-0.010707417
-0.0091502979
-0.0077645738
-0.0065360181
-0.0054513084
-0.0044979385
-0.0036650522
-0.0029414729
-0.0023222452
-0.0017901356
-0.0013701608
-0.00097531324
-0.0008413369
-0.00032288739
-0.0011853065
0.0013465308
-0.18627088
-0.19144299
-0.18758184
-0.17862043
-0.17115442
-0.1646017
-0.15761514
-0.15020215
-0.14265484
-0.13504943
-0.12739886
-0.11975373
-0.11217683
-0.10471991
-0.097425945
-0.090333248
-0.08347512
-0.076879123
-0.070567335
-0.064556799
-0.058859863
-0.053484511
-0.048434739
-0.043710953
-0.039310364
-0.035227381
-0.031453999
-0.027980179
-0.024794209
-0.021883056
-0.019232687
-0.016828376
-0.014654983
-0.012697203
-0.010939802
-0.0093678136
-0.0079667313
-0.0067226529
-0.0056224928
-0.0046539283
-0.003806151
-0.0030681523
-0.0024344855
-0.0018889727
-0.0014526927
-0.0010480581
-0.00088059647
-0.00038341274
-0.0010847149
0.0011438692
-0.1772253
-0.17988585
-0.17725363
-0.17004272
-0.16346457
-0.15763721
-0.15144472
-0.14478723
-0.13792684
-0.13095918
-0.12389956
-0.11679265
-0.10970012
-0.10267573
-0.095764764
-0.089008142
-0.082442313
-0.076098296
-0.070001698
-0.06417308
-0.058628224
-0.053378417
-0.048430779
-0.043788643
-0.039451931
-0.035417538
-0.031679724
-0.028230487
-0.025059943
-0.022156674
-0.019508069
-0.017100637
-0.014920302
-0.012952669
-0.011183265
-0.0095977595
-0.0081821618
-0.0069229828
-0.0058074469
-0.0048234777
-0.0039603558
-0.0032072922
-0.0025583162
-0.0019984531
-0.0015444169
-0.0011291016
-0.00092466414
-0.00045080578
-0.00097485908
0.00092116382
-0.16723893
-0.16740282
-0.16525704
-0.16013448
-0.15481324
-0.1497593
-0.1443842
-0.13856172
-0.13246579
-0.12619725
-0.11978688
-0.11327752
-0.1067276
-0.10019163
-0.093716889
-0.087346506
-0.081119625
-0.07507045
-0.069228001
-0.063616336
-0.058254751
-0.053157977
-0.048336466
-0.043796711
-0.039541605
-0.035570803
-0.0318811
-0.028466805
-0.025320115
-0.022431474
-0.019789918
-0.017383401
-0.015199102
-0.0132237
-0.011443637
-0.0098453474
-0.0084154683
-0.0071410197
-0.0060096157
-0.0050094903
-0.0041300621
-0.003360797
-0.0026952172
-0.0021195615
-0.0016461265
-0.0012183497
-0.00097458337
-0.00052214469
-0.0008634039
0.00068865466
-0.15637462
-0.15476961
-0.1526958
-0.14929663
-0.1452887
-0.14106803
-0.136515
-0.13155784
-0.12627833
-0.12075954
-0.11504741
-0.10918728
-0.10323348
-0.097239435
-0.091253477
-0.085320158
-0.079480562
-0.073771481
-0.068224969
-0.062868358
-0.057724355
-0.052811155
-0.048142638
-0.043728632
-0.039575219
-0.035685062
-0.032057762
-0.028690212
-0.025576965
-0.022710594
-0.020082033
-0.017680917
-0.015495895
-0.013514921
-0.011725524
-0.010115056
-0.0086709194
-0.0073807569
-0.0062326685
-0.0052152754
-0.0043181993
-0.0035311957
-0.0028473311
-0.0022540025
-0.0017592475
-0.0013165795
-0.0010316454
-0.00059652295
-0.00075629007
0.00045448416
-0.14433291
-0.14202506
-0.14011383
-0.13799929
-0.13517837
-0.13181849
-0.12807569
-0.12396275
-0.11950192
-0.11474917
-0.10975763
-0.10457441
-0.09924942
-0.093833702
-0.088375431
-0.082919512
-0.077507837
-0.072178783
-0.066966655
-0.061901471
-0.05700892
-0.052310371
-0.047822978
-0.043559852
-0.0395303
-0.035740097
-0.032191802
-0.02888508
-0.025817052
-0.022982635
-0.020374891
-0.017985353
-0.01580435
-0.013821307
-0.012025025
-0.010403939
-0.0089463635
-0.0076406916
-0.0064756214
-0.0054402525
-0.0045244899
-0.0037184213
-0.0030147402
-0.0024019079
-0.001884027
-0.001423835
-0.0010966152
-0.00067321944
-0.00065939544
0.00022724762
-0.13143316
-0.12931477
-0.1277909
-0.12660184
-0.12475956
-0.12223065
-0.11926906
-0.11595289
-0.11228023
-0.10828119
-0.10400745
-0.099507408
-0.094825714
-0.090008546
-0.085102678
-0.080152508
-0.075199696
-0.070283047
-0.065438099
-0.060696731
-0.056086944
-0.051632763
-0.047354227
-0.043267473
-0.039384881
-0.035715281
-0.032264204
-0.029034163
-0.026024961
-0.023234016
-0.020656678
-0.018286565
-0.01611587
-0.014135669
-0.012336209
-0.010707175
-0.0092379389
-0.0079177838
-0.0067361252
-0.005682642
-0.004747616
-0.0039215167
-0.0031967736
-0.0025627936
-0.0020202105
-0.0015398203
-0.0011699998
-0.00075156109
-0.00057858186
1.6150438e-05
-0.1183829
-0.11688254
-0.11587739
-0.11535971
-0.11428808
-0.11251299
-0.11028087
-0.1076987
-0.10476132
-0.10148143
-0.097902632
-0.094071007
-0.090027851
-0.085813808
-0.08147112
-0.077042471
-0.072568567
-0.068087658
-0.06363542
-0.059244613
-0.05494472
-0.050761723
-0.046717979
-0.042832208
-0.039119537
-0.03559163
-0.03225686
-0.029120535
-0.026185154
-0.023450689
-0.020914886
-0.018573565
-0.016420926
-0.01444985
-0.012652183
-0.011019009
-0.009540907
-0.0082081817
-0.0070110909
-0.00594
-0.00498567
-0.0041390103
-0.0033923156
-0.0027358115
-0.0021672318
-0.001664072
-0.0012520852
-0.00083114574
-0.00051893566
-0.00017006975
-0.10571405
-0.1049048
-0.10443826
-0.10443042
-0.10396174
-0.10284043
-0.10126659
-0.099347194
-0.097080242
-0.094469025
-0.091547226
-0.088355353
-0.084930132
-0.081307725
-0.077525759
-0.073622761
-0.069637137
-0.065605823
-0.061563749
-0.057543581
-0.053575384
-0.049686295
-0.045900308
-0.042238144
-0.038717212
-0.035351646
-0.032152397
-0.02912739
-0.026281716
-0.023617866
-0.021135989
-0.018834166
-0.01670869
-0.014754352
-0.012964716
-0.011332396
-0.0098493057
-0.0085068986
-0.0072963952
-0.0062089553
-0.0052359258
-0.004368722
-0.0035996457
-0.0029196261
-0.0023241172
-0.0017959053
-0.0013428397
-0.00091188179
-0.00048401755
-0.00032433119
-0.093704335
-0.093498862
-0.093518307
-0.093912583
-0.093919182
-0.093347422
-0.09234908
-0.091016594
-0.08934997
-0.087347696
-0.085034229
-0.082442867
-0.079604956
-0.07655151
-0.0733156
-0.06993159
-0.066434077
-0.062857449
-0.059235099
-0.055598788
-0.051978301
-0.048401117
-0.044892122
-0.04147339
-0.038164054
-0.034980252
-0.03193514
-0.029038973
-0.026299229
-0.023720785
-0.02130612
-0.019055553
-0.016967492
-0.015038689
-0.01326451
-0.011639188
-0.010156077
-0.0088078881
-0.0075869142
-0.0064852122
-0.0054948207
-0.0046077325
-0.0038164031
-0.003112376
-0.0024894503
-0.0019343755
-0.0014418471
-0.00099390335
-0.00047530583
-0.00044226017
-0.08248928
-0.082753967
-0.083169932
-0.083879315
-0.084259229
-0.084137622
-0.083627784
-0.082803809
-0.081665031
-0.080206892
-0.078446049
-0.076408266
-0.074118984
-0.071603862
-0.068890815
-0.066009775
-0.062991453
-0.059866735
-0.056666433
-0.053420639
-0.050158109
-0.046905894
-0.043689033
-0.040530277
-0.037449873
-0.034465437
-0.031591882
-0.028841425
-0.026223641
-0.023745574
-0.021411884
-0.019225035
-0.017185502
-0.015292001
-0.013541722
-0.011930577
-0.010453432
-0.00910434
-0.007876758
-0.0067637324
-0.0057580923
-0.0048524829
-0.0040396571
-0.0033117186
-0.0026614007
-0.0020782692
-0.0015482782
-0.001077423
-0.00049191117
-0.00052295174
-0.072126333
-0.072730994
-0.073445062
-0.074390109
-0.075056073
-0.075293081
-0.075185898
-0.074791652
-0.074107386
-0.073125978
-0.071857597
-0.070320912
-0.068535358
-0.066521168
-0.064300996
-0.061899863
-0.059344254
-0.056661363
-0.053878739
-0.051023957
-0.048124033
-0.045204903
-0.042291059
-0.039405254
-0.036568229
-0.033798511
-0.031112274
-0.028523272
-0.026042822
-0.02367985
-0.021440977
-0.019330652
-0.017351316
-0.015503584
-0.013786458
-0.012197536
-0.010733237
-0.0093890111
-0.0081595494
-0.0070389648
-0.006020965
-0.0050989217
-0.0042660211
-0.0035149106
-0.0028377811
-0.0022261071
-0.0016608881
-0.001162555
-0.00053065432
-0.00056921934
-0.062625348
-0.063461187
-0.064382953
-0.065491078
-0.06636619
-0.066879179
-0.067093563
-0.067052415
-0.066750168
-0.066177422
-0.065338964
-0.064247175
-0.062915776
-0.061359718
-0.059596478
-0.057646098
-0.055530489
-0.053272833
-0.050897153
-0.048427953
-0.045889822
-0.043306933
-0.040702595
-0.038098922
-0.035516529
-0.032974277
-0.030489075
-0.028075746
-0.025746944
-0.023513135
-0.021382627
-0.019361638
-0.017454408
-0.015663347
-0.013989198
-0.012431218
-0.010987378
-0.0096545524
-0.0084287121
-0.0073050948
-0.0062783606
-0.0053426787
-0.0044917924
-0.0037189101
-0.0030161219
-0.0023761585
-0.0017780455
-0.0012491532
-0.00058654072
-0.00058717454
-0.053969869
-0.05495137
-0.056004963
-0.057212945
-0.058230252
-0.058946223
-0.059408223
-0.059648165
-0.059658313
-0.059427462
-0.058956041
-0.058251092
-0.057321221
-0.056176479
-0.054829446
-0.053295327
-0.051591435
-0.049736713
-0.047751385
-0.045656599
-0.04347404
-0.041225541
-0.038932652
-0.036616257
-0.034296255
-0.031991268
-0.029718402
-0.027493051
-0.025328767
-0.023237171
-0.021227927
-0.019308753
-0.017485483
-0.015762154
-0.014141138
-0.012623282
-0.011208071
-0.0098938002
-0.0086777371
-0.0075562835
-0.0065251094
-0.0055792458
-0.0047131027
-0.0039204935
-0.0031937599
-0.0025264733
-0.0018977984
-0.0013367116
-0.00065356792
-0.0005851382
-0.046127672
-0.047189357
-0.048314396
-0.0495702
-0.050673389
-0.051529636
-0.052173969
-0.052629624
-0.052887419
-0.052934976
-0.052769378
-0.052393332
-0.051811109
-0.051028448
-0.050053496
-0.048896959
-0.047571736
-0.04609256
-0.044475726
-0.042738811
-0.040900322
-0.038979341
-0.036995163
-0.03496693
-0.032913282
-0.03085206
-0.028800031
-0.02677266
-0.024783927
-0.022846189
-0.020970098
-0.019164559
-0.017436731
-0.015792079
-0.014234442
-0.01276614
-0.011388103
-0.010100002
-0.0089003961
-0.007786866
-0.0067561312
-0.0058041383
-0.0049260572
-0.004116368
-0.0033679294
-0.002674933
-0.0020179769
-0.0014243511
-0.00072569809
-0.00057209065
-0.039056125
-0.040149156
-0.04129956
-0.042562568
-0.043706182
-0.044650564
-0.045421413
-0.046035369
-0.046482525
-0.046750005
-0.046832519
-0.046729449
-0.046441587
-0.045971081
-0.045322255
-0.044501816
-0.043518612
-0.042383386
-0.041108588
-0.039708166
-0.038197293
-0.03659206
-0.034909157
-0.033165556
-0.031378181
-0.0295636
-0.027737743
-0.025915651
-0.024111259
-0.022337222
-0.020604779
-0.018923667
-0.017302074
-0.01574663
-0.014262441
-0.012853146
-0.011521
-0.010266981
-0.0090908977
-0.0079914985
-0.0069665718
-0.0060130198
-0.0051268468
-0.0043032679
-0.0035358455
-0.0028193139
-0.0021363213
-0.0015108901
-0.00079775788
-0.00055604599
-0.032706703
-0.033795883
-0.034937863
-0.03617789
-0.037326733
-0.038317353
-0.039168506
-0.039891922
-0.040477599
-0.040912771
-0.041190658
-0.041308262
-0.04126376
-0.041056477
-0.040687618
-0.040160497
-0.039480413
-0.038654498
-0.037691608
-0.036602187
-0.035398076
-0.034092272
-0.032698663
-0.031231759
-0.029706403
-0.028137482
-0.02653965
-0.024927065
-0.023313166
-0.02171046
-0.020130362
-0.018583063
-0.017077437
-0.015620994
-0.014219857
-0.012878783
-0.011601202
-0.010389285
-0.0092440142
-0.0081652707
-0.0071519039
-0.0062017926
-0.0053118293
-0.0044780268
-0.0036947735
-0.002957357
-0.0022506096
-0.0015949675
-0.00086603054
-0.00054279686
-0.027028393
-0.02808947
-0.029199386
-0.030395192
-0.031523203
-0.032527601
-0.033422032
-0.034214655
-0.034895854
-0.035453458
-0.035879946
-0.036170776
-0.036322309
-0.036331808
-0.036198072
-0.035921692
-0.035505002
-0.034952013
-0.034268373
-0.033461297
-0.032539452
-0.031512785
-0.030392331
-0.029189985
-0.02791827
-0.026590084
-0.025218447
-0.023816243
-0.022395997
-0.020969657
-0.019548401
-0.018142487
-0.016761119
-0.015412363
-0.014103081
-0.01283891
-0.011624264
-0.010462351
-0.0093552239
-0.0083038223
-0.0073080224
-0.0063666771
-0.0054775953
-0.0046376364
-0.0038420849
-0.0030868375
-0.0023587631
-0.0016751754
-0.00092840155
-0.00053536529
-0.021969978
-0.022987303
-0.02404969
-0.02518742
-0.026276339
-0.027270388
-0.028179475
-0.029009197
-0.029750663
-0.030392644
-0.030927462
-0.031349724
-0.031654671
-0.031838189
-0.031897358
-0.031830707
-0.031638224
-0.031321354
-0.030883008
-0.03032756
-0.029660786
-0.028889771
-0.028022773
-0.027069062
-0.026038734
-0.024942507
-0.023791509
-0.022597044
-0.021370376
-0.020122518
-0.018864037
-0.017604881
-0.016354224
-0.01512035
-0.013910559
-0.012731103
-0.011587148
-0.010482761
-0.0094209155
-0.008403508
-0.007431375
-0.0065043125
-0.0056210469
-0.0047793104
-0.0039753141
-0.0032056317
-0.0024589126
-0.0017501662
-0.00098408223
-0.00053423677
-0.017481906
-0.018446446
-0.019452251
-0.020523954
-0.021561958
-0.02252863
-0.023431134
-0.024273249
-0.025047005
-0.025742327
-0.026351806
-0.026869734
-0.027290798
-0.027610091
-0.02782358
-0.027928347
-0.027922636
-0.027805888
-0.027578799
-0.027243351
-0.026802809
-0.026261687
-0.025625666
-0.024901498
-0.024096875
-0.023220269
-0.02228077
-0.021287889
-0.020251369
-0.019180987
-0.018086368
-0.016976807
-0.015861106
-0.014747439
-0.013643231
-0.012555064
-0.011488607
-0.01044857
-0.0094386762
-0.0084616395
-0.00751916
-0.0066119157
-0.0057395212
-0.0049005822
-0.0040922363
-0.0033117938
-0.0025494327
-0.0018187194
-0.0010330925
-0.00053816292
-0.01351736
-0.014425065
-0.01537016
-0.016372512
-0.017352966
-0.018281122
-0.019162117
-0.019998428
-0.020783093
-0.021507288
-0.02216415
-0.022748044
-0.023253528
-0.023675369
-0.024008925
-0.024250363
-0.024396727
-0.024445995
-0.024397159
-0.024250288
-0.024006567
-0.023668297
-0.023238877
-0.022722753
-0.022125339
-0.021452913
-0.020712495
-0.0199117
-0.019058581
-0.018161462
-0.017228764
-0.016268842
-0.015289824
-0.014299466
-0.013305015
-0.012313098
-0.011329628
-0.010359727
-0.0094076628
-0.0084768089
-0.0075696011
-0.0066875085
-0.0058309757
-0.0049994536
-0.0041909831
-0.0034036503
-0.0026289683
-0.0018797824
-0.0010757476
-0.00054514212
-0.010033747
-0.010884163
-0.011768049
-0.012701188
-0.013621469
-0.014504677
-0.015354419
-0.016172231
-0.016952154
-0.017686624
-0.018369478
-0.018995407
-0.019559142
-0.020055465
-0.020479518
-0.020826987
-0.021094178
-0.021278081
-0.021376463
-0.021387946
-0.021312068
-0.021149322
-0.020901169
-0.020570033
-0.020159267
-0.019673101
-0.019116557
-0.018495353
-0.017815785
-0.017084594
-0.016308822
-0.015495667
-0.014652334
-0.013785892
-0.012903141
-0.012010486
-0.011113823
-0.010218448
-0.0093289676
-0.0084492281
-0.007582253
-0.0067301862
-0.0058942165
-0.0050745855
-0.0042701939
-0.003479918
-0.0026964752
-0.0019325083
-0.0011123302
-0.00055321381
-0.0069926534
-0.0077880072
-0.0086129299
-0.0094796734
-0.010340344
-0.01117599
-0.01198904
-0.012780324
-0.013544827
-0.014276179
-0.014968983
-0.015618398
-0.016219517
-0.01676737
-0.017257162
-0.017684428
-0.018045103
-0.01833559
-0.018552843
-0.01869446
-0.018758749
-0.018744791
-0.018652478
-0.018482538
-0.018236544
-0.01791689
-0.017526762
-0.017070073
-0.016551386
-0.015975828
-0.01534897
-0.014676717
-0.013965171
-0.013220513
-0.012448866
-0.011656177
-0.010848093
-0.010029856
-0.0092061987
-0.0083812529
-0.0075584655
-0.0067405196
-0.0059292409
-0.0051255823
-0.0043292426
-0.0035398762
-0.0027513152
-0.0019763251
-0.0011430059
-0.00056089417
-0.0043613257
-0.0051054374
-0.0058753584
-0.0066802325
-0.007484017
-0.0082722235
-0.0090463497
-0.0098066782
-0.010549039
-0.011268152
-0.011959377
-0.012618404
-0.013240786
-0.013821935
-0.014357305
-0.014842512
-0.01527339
-0.015646062
-0.015957008
-0.016203159
-0.016381962
-0.016491454
-0.016530317
-0.016497921
-0.01639436
-0.016220461
-0.015977786
-0.015668606
-0.015295866
-0.014863122
-0.014374475
-0.013834477
-0.013248033
-0.012620292
-0.011956538
-0.011262071
-0.01054209
-0.009801582
-0.0090452103
-0.0082772096
-0.0075012833
-0.0067205085
-0.0059372255
-0.0051530013
-0.0043682544
-0.0035833789
-0.0027932496
-0.0020109285
-0.001167833
-0.00056724035
-0.0021139859
-0.0028123011
-0.0035328336
-0.0042820795
-0.0050338075
-0.0057772573
-0.0065131778
-0.0072414085
-0.0079585097
-0.0086601596
-0.0093424173
-0.010001505
-0.010633463
-0.011234148
-0.011799362
-0.012324944
-0.012806816
-0.013241039
-0.013623878
-0.01395188
-0.014221939
-0.014431371
-0.014577973
-0.014660078
-0.014676611
-0.014627117
-0.014511788
-0.014331472
-0.014087662
-0.013782475
-0.013418611
-0.012999301
-0.012528232
-0.012009467
-0.011447354
-0.010846423
-0.010211282
-0.0095465064
-0.008856527
-0.0081455182
-0.0074172854
-0.0066751567
-0.0059218589
-0.0051594638
-0.0043890157
-0.0036115856
-0.0028230141
-0.0020367275
-0.0011871784
-0.00057193887
-0.00022578701
-0.00088383176
-0.0015608995
-0.0022611032
-0.0029662777
-0.0036687731
-0.0043687337
-0.0050656279
-0.0057566226
-0.0064382096
-0.0071070651
-0.0077599009
-0.0083932271
-0.0090033471
-0.0095864469
-0.010138659
-0.0106561
-0.011134913
-0.011571324
-0.011961704
-0.012302632
-0.012590959
-0.012823873
-0.012998957
-0.013114249
-0.013168291
-0.01316017
-0.013089546
-0.012956674
-0.012762408
-0.012508186
-0.012196012
-0.011828409
-0.011408365
-0.010939268
-0.01042482
-0.0098689529
-0.0092757223
-0.0086492049
-0.0079933841
-0.0073120342
-0.0066086034
-0.0058860808
-0.0051469289
-0.0043927146
-0.0036251024
-0.0028408072
-0.0020536166
-0.0012008061
-0.00057454224
0.0012999961
0.00067473681
3.3424332e-05
-0.00062630378
-0.0012926887
-0.0019605211
-0.0026294496
-0.0032986448
-0.00396576
-0.0046279456
-0.0052823893
-0.005926222
-0.0065563666
-0.0071695329
-0.0077622738
-0.0083310287
-0.0088721509
-0.0093819413
-0.0098566925
-0.010292739
-0.010686513
-0.011034599
-0.011333796
-0.011581177
-0.011774151
-0.011910515
-0.011988513
-0.012006875
-0.011964858
-0.011862272
-0.011699489
-0.011477446
-0.011197636
-0.01086207
-0.010473237
-0.010034045
-0.0095477429
-0.0090178376
-0.0084479961
-0.0078419369
-0.007203314
-0.0065355968
-0.0058419325
-0.0051250679
-0.0043869855
-0.0036298445
-0.002851121
-0.0020649117
-0.0012110511
-0.00057624626
0.0025054321
0.0019071624
0.0012951347
0.00066860435
3.4330592e-05
-0.0006044263
-0.0012469329
-0.0018921111
-0.0025379823
-0.0031822103
-0.0038223884
-0.004455986
-0.0050802655
-0.0056922784
-0.0062888974
-0.0068668423
-0.0074227008
-0.0079529538
-0.0084540101
-0.0089222462