/*--------------------------------*- C++ -*----------------------------------*\
  =========                 |
  \\      /  F ield         | OpenFOAM: The Open Source CFD Toolbox
   \\    /   O peration     | Website:  https://openfoam.org
    \\  /    A nd           | Version:  6
     \\/     M anipulation  |
\*---------------------------------------------------------------------------*/
FoamFile
{
    version     2.0;
    format      ascii;
    class       surfaceScalarField;
    location    "69";
    object      phi;
}
// * * * * * * * * * * * * * * * * * * * * * * * * * * * * * * * * * * * * * //

dimensions      [0 3 -1 0 0 0 0];

internalField   nonuniform List<scalar> 
18180
(
0.00031902255
-0.00016374217
-0.00015528038
0.0013103858
-0.0013693003
0.00037793706
0.0030355668
-0.0033384505
0.0016132694
0.0055546158
-0.0059838506
0.0034648016
0.008925891
-0.0092506281
0.0058793529
0.013204064
-0.013095309
0.0088171355
0.018437453
-0.017480393
0.012247003
0.024665047
-0.022371623
0.016144029
0.031913348
-0.027734849
0.020486548
0.040193291
-0.033533411
0.025253469
0.049497552
-0.039726379
0.030422118
0.059798626
-0.046267636
0.035966562
0.07104806
-0.053105788
0.041856354
0.083177318
-0.060184926
0.048055668
0.096100878
-0.067446341
0.054522782
0.10972208
-0.074831296
0.061210098
0.12394115
-0.082284704
0.06806563
0.13867047
-0.089759434
0.075030111
0.15390832
-0.097238271
0.082000421
-0.10471882
0.088774179
0.16985296
0.00039783115
-0.00056157331
0.0016109164
-0.0025823855
0.0036923
-0.0054198341
0.0066927737
-0.0089843243
0.01065902
-0.013216874
0.015629943
-0.018066232
0.021632655
-0.023483105
0.028678502
-0.029417469
0.036759427
-0.035815775
0.045845076
-0.042619059
0.055881054
-0.049762358
0.066788732
-0.057175313
0.078466797
-0.064783853
0.090794679
-0.072512808
0.10363761
-0.080289275
0.11685275
-0.088046431
0.13029535
-0.09572731
0.14382561
-0.10328969
0.15730754
-0.1107202
-0.11794941
0.17053813
0.00048099634
-0.0010425697
0.0019201501
-0.0040215393
0.0043557115
-0.0078553955
0.0078222646
-0.012450877
0.012346486
-0.017741095
0.017941731
-0.023661477
0.024602948
-0.030144322
0.032302402
-0.037116924
0.040986645
-0.044500018
0.050575218
-0.052207632
0.060961469
-0.060148609
0.072015646
-0.06822949
0.083590143
-0.076358349
0.095526487
-0.084449152
0.10766333
-0.09242612
0.11984439
-0.10022749
0.1319251
-0.10780802
0.14377605
-0.11514065
0.15527541
-0.12221955
-0.12899478
0.16632078
0.00056657691
-0.0016091466
0.0022294984
-0.0056844607
0.0050040219
-0.010629919
0.0088999303
-0.016346786
0.013914258
-0.022755423
0.020024412
-0.029771631
0.027182828
-0.037302738
0.035313637
-0.045247733
0.044311778
-0.05349816
0.054044953
-0.061940806
0.064358434
-0.07046209
0.075082417
-0.078953474
0.086041213
-0.087317145
0.097063276
-0.095471215
0.10799095
-0.1033538
0.11868879
-0.11092533
0.12904956
-0.11816878
0.13899683
-0.12508793
0.14848183
-0.13170454
-0.13801807
0.15750511
0.00065131983
-0.0022604664
0.0025259643
-0.0075591052
0.0056071281
-0.013711083
0.0098704157
-0.020610073
0.015273473
-0.02815848
0.021748459
-0.036246617
0.029197776
-0.044752056
0.037493242
-0.053543198
0.046478944
-0.062483861
0.055977652
-0.071439515
0.065800169
-0.080284607
0.075756545
-0.08890985
0.085667812
-0.097228411
0.095376792
-0.1051802
0.1047567
-0.11273371
0.1137167
-0.11988532
0.12220398
-0.12665606
0.13020257
-0.13308652
0.13772891
-0.13923088
-0.14513303
0.14484387
0.00073108459
-0.002991551
0.0027937281
-0.0096217487
0.0061300376
-0.017047392
0.010672483
-0.025152519
0.016331032
-0.03381703
0.02298632
-0.042901904
0.030488031
-0.052253766
0.038658091
-0.061713258
0.047298283
-0.071124054
0.056201327
-0.080342559
0.065163918
-0.089247197
0.073999927
-0.097745859
0.082551966
-0.10578045
0.090699875
-0.11332811
0.098365197
-0.12039903
0.10551147
-0.1270316
0.11214084
-0.13328543
0.11828797
-0.13923365
0.12401252
-0.14495542
-0.15052199
0.12940148
0.00080118144
-0.0037927324
0.0030155227
-0.01183609
0.0065362041
-0.020568074
0.011245425
-0.029861739
0.017000271
-0.039571876
0.023628205
-0.049529838
0.030929584
-0.059555146
0.03868577
-0.069469444
0.046671471
-0.079109756
0.054669361
-0.088340448
0.062484638
-0.097062474
0.069957316
-0.10521854
0.076970562
-0.1127937
0.083454141
-0.11981168
0.089382977
-0.12632787
0.094771579
-0.1324202
0.09966571
-0.13817956
0.10413292
-0.14370086
0.10825352
-0.14907602
-0.15438626
0.11211779
0.0008564951
-0.0046492275
0.0031735743
-0.014153169
0.0067902589
-0.024184758
0.011534573
-0.034606053
0.01720991
-0.045247213
0.023594435
-0.055914364
0.03044863
-0.06640934
0.0375282
-0.076549014
0.044599891
-0.086181447
0.051457356
-0.095197913
0.057934304
-0.10353942
0.063912918
-0.11119715
0.069326556
-0.11820733
0.074156848
-0.12464198
0.078426307
-0.13059733
0.082188093
-0.13618198
0.085514894
-0.14150636
0.088488595
-0.14667456
0.091192076
-0.15177951
-0.15689946
0.093705278
0.00089066805
-0.0055398955
0.0032496465
-0.016512148
0.0068602644
-0.027795376
0.011496457
-0.039242246
0.016911964
-0.050662719
0.02284477
-0.06184717
0.029029611
-0.072594181
0.035214453
-0.082733856
0.041177516
-0.09214451
0.046741507
-0.1007619
0.051782513
-0.10858043
0.056232379
-0.11564702
0.06007476
-0.12204971
0.063336221
-0.12790344
0.066074391
-0.1333355
0.068365396
-0.13847299
0.070292453
-0.14343342
0.07193701
-0.14831912
0.073372992
-0.15321549
-0.15819042
0.074663953
0.00090017802
-0.0064400736
0.0032345448
-0.018846514
0.006731325
-0.031292156
0.011114265
-0.043625186
0.016096178
-0.055644632
0.021388373
-0.067139366
0.026716985
-0.077922792
0.031840772
-0.087857643
0.036566504
-0.096870242
0.040758735
-0.10495413
0.044342394
-0.11216409
0.047298299
-0.11860292
0.049653118
-0.12440453
0.051466161
-0.12971648
0.052815483
-0.13468482
0.053785425
-0.13944293
0.054457024
-0.14410502
0.054901896
-0.14876399
0.055179415
-0.15349301
0.05533563
-0.15834664
-0.00020255448
0.00020255483
-3.2647227e-10
-0.00067831025
0.00047575609
-3.0055957e-10
-0.0013435019
0.00066519191
-2.529721e-10
-0.0021339437
0.0007904421
-2.6818015e-10
-0.0029980064
0.00086406305
-2.9287711e-10
-0.0038935255
0.00089551938
-3.1501476e-10
-0.004785564
0.00089203886
-3.3141756e-10
-0.0056445414
0.00085897775
-3.4476788e-10
-0.0064447608
0.0008002198
-3.5195331e-10
-0.0071632567
0.00071849628
-3.5637387e-10
-0.0077788751
0.00061561875
-3.5468975e-10
-0.008271537
0.00049266232
-3.5136211e-10
-0.0086216581
0.00035012138
-3.4286249e-10
-0.0088097137
0.00018805597
-3.3395606e-10
-0.0088159833
6.2699946e-06
-3.2106187e-10
-0.0086205739
-0.00019540917
-3.0865593e-10
-0.0082036832
-0.00041689037
-2.9283948e-10
-0.0075451946
-0.00065848832
-2.7712306e-10
-0.0066242695
-0.00092092484
-2.5751727e-10
-0.0011905844
-0.0054336849
-2.362898e-10
-0.0001881295
0.00039068434
-0.00062549663
0.00091312324
-0.0012296735
0.0012693688
-0.001936578
0.0014973466
-0.0026939658
0.0016214509
-0.0034584881
0.0016600417
-0.0041935418
0.0016270925
-0.0048674575
0.0015328935
-0.0054520605
0.0013848228
-0.0059215337
0.0011879694
-0.0062515008
0.00094558582
-0.0064182834
0.00065944502
-0.0063982955
0.00033013347
-0.0061675626
-4.267693e-05
-0.0057013962
-0.00045989643
-0.0049743126
-0.00092249275
-0.0039602486
-0.0014309543
-0.0026324825
-0.0019862545
-0.00096348253
-0.0025899248
-0.0032121275
0.0010580606
-0.00015904246
0.00054972681
-0.0005192393
0.0012733201
-0.0010013927
0.0017515222
-0.0015421354
0.0020380893
-0.0020884024
0.0021677179
-0.0025948365
0.0021664758
-0.0030218414
0.0020540975
-0.0033339127
0.0018449648
-0.0034982902
0.0015492003
-0.0034838805
0.0011735597
-0.0032603718
0.00072207714
-0.0027975132
0.00019658644
-0.0020644798
-0.00040289986
-0.0010293584
-0.0010777984
0.00034128327
-0.0018305381
0.0020826738
-0.0026638833
0.0042317995
-0.00358008
0.006827097
-0.004581552
0.0099083834
-0.0056712112
-0.0067988043
0.01349506
-0.00011762776
0.00066735457
-0.00036715613
0.0015228485
-0.00067373496
0.002058101
-0.0009750156
0.00233937
-0.0012168589
0.0024095612
-0.0013512029
0.0023008198
-0.0013344034
0.002037298
-0.0011257776
0.0016363391
-0.00068640643
0.0011098291
2.1819083e-05
0.00046533416
0.0010369826
-0.0002930864
0.0023977902
-0.0011642211
0.0041441155
-0.0021492252
0.006317482
-0.0032511649
0.0089615691
-0.0044746252
0.01212277
-0.0058250839
0.015850565
-0.0073078756
0.020197226
-0.0089282127
0.025217597
-0.010691582
-0.012523399
0.030942192
-6.6908288e-05
0.00073426287
-0.00017910828
0.0016350485
-0.00026629616
0.0021452889
-0.00026709307
0.0023401669
-0.00012599229
0.0022684605
0.00020827863
0.0019665489
0.00078408749
0.0014614891
0.0016480678
0.00077235877
0.0028460895
-8.8192535e-05
0.004424045
-0.0011126213
0.0064284129
-0.0022974544
0.0089066743
-0.0036424824
0.011907637
-0.005150188
0.015481765
-0.0068252931
0.019681551
-0.0086744112
0.024562134
-0.010705667
0.030182177
-0.012927919
0.036604379
-0.015350414
0.043896239
-0.017983443
-0.020727374
0.052100213
-9.9251464e-06
0.00074418802
3.4813262e-05
0.0015903101
0.00020060095
0.0019795013
0.00054818204
0.0019925858
0.0011347054
0.0016819371
0.0020148851
0.0010863692
0.0032419652
0.00023440911
0.0048686022
-0.00085427832
0.0069475233
-0.0021671135
0.0095318987
-0.0036969968
0.012675551
-0.0054411063
0.016433055
-0.0073999872
0.020859668
-0.009576801
0.026011159
-0.011976784
0.031943711
-0.014606963
0.038714213
-0.017476169
0.046381442
-0.020595148
0.055008124
-0.023977096
0.064664765
-0.027640084
-0.031465409
0.075402801
5.0866556e-05
0.00069332147
0.00026614495
0.0013750317
0.00070941978
0.0015362264
0.0014412379
0.0012607677
0.0025204973
0.00060267767
0.0040052088
-0.00039834234
0.005953091
-0.001713473
0.0084219578
-0.0033231452
0.011469848
-0.0052150036
0.015154991
-0.0073821402
0.019535539
-0.0098216542
0.024669033
-0.012533481
0.030611665
-0.015519433
0.037417375
-0.018782494
0.045136912
-0.0223265
0.053817281
-0.026156537
0.063502547
-0.030280414
0.074237224
-0.034711772
0.086075214
-0.039478075
-0.044462369
0.099072174
0.00011396118
0.00057936029
0.00050918082
0.00097981206
0.0012475663
0.00079784101
0.0023897171
0.00011861693
0.0039960462
-0.0010036515
0.0061271229
-0.002529419
0.0088436509
-0.004430001
0.012206289
-0.0066857836
0.016275245
-0.0092839592
0.021109522
-0.012216417
0.026765881
-0.015478013
0.033297507
-0.019065107
0.040752415
-0.022974341
0.04917164
-0.027201719
0.058587331
-0.031742192
0.069021125
-0.036590331
0.080483952
-0.041743241
0.092979149
-0.047206969
0.10651395
-0.053012872
-0.059080797
0.12113237
0.00017870443
0.00040065587
0.00076087766
0.00039763884
0.0018072997
-0.00024858097
0.0033783121
-0.0014523955
0.0055348114
-0.0031601507
0.0083379885
-0.0053325962
0.011848702
-0.007940714
0.016126547
-0.01096363
0.021228578
-0.014385989
0.027207669
-0.018195509
0.034110591
-0.022380935
0.041975797
-0.026930313
0.050830992
-0.031829537
0.060690493
-0.03706122
0.071552369
-0.042604067
0.083395438
-0.0484334
0.09617706
-0.054524864
0.10983447
-0.060864383
0.12429827
-0.067476663
-0.074366887
0.13958436
0.00024537549
0.0010209514
0.0023856398
0.0043980459
0.0071172481
0.010601787
0.014908077
0.020088476
0.026189035
0.033246995
0.041288177
0.050324427
0.060351244
0.071345692
0.083264407
0.096041104
0.10958187
0.1237476
0.13827136
0.15267865
-0.0034878175
-0.0019458671
-2.6945393e-10
-0.001260035
-0.0022277823
-2.1096482e-10
0.001227378
-0.0024874128
-1.47644e-10
0.0039174853
-0.0026901072
-7.6263136e-11
0.0067834981
-0.0028660129
4.8573111e-12
0.0098081475
-0.0030246495
9.7354508e-11
0.012972529
-0.0031643816
2.0150715e-10
0.016258646
-0.0032861175
3.1452563e-10
0.019650827
-0.0033921812
4.3280596e-10
0.023134884
-0.0034840577
5.5137366e-10
0.026697564
-0.0035626809
6.6479684e-10
0.030326478
-0.0036289144
7.6547326e-10
0.03401002
-0.0036835431
8.4557324e-10
0.037737236
-0.0037272173
8.9641644e-10
0.041497722
-0.0037604863
9.0899219e-10
0.045281556
-0.0037838347
8.7474145e-10
0.049079255
-0.0037976999
7.850132e-10
0.05288174
-0.0038024856
6.3424482e-10
0.056680316
-0.0037985764
4.180714e-10
0.060466665
-0.0037863495
1.3847393e-10
0.064232849
-0.0037661837
-2.0043718e-10
0.067971315
-0.0037384654
-5.8461037e-10
0.071674909
-0.0037035933
-9.9775924e-10
0.075336891
-0.0036619802
-1.4100813e-09
0.078950946
-0.0036140538
-1.7924396e-09
0.082511204
-0.0035602553
-2.1005185e-09
0.086012244
-0.0035010384
-2.2996958e-09
0.089449112
-0.0034368656
-2.3418746e-09
0.09281732
-0.0033682059
-2.2067892e-09
0.096112853
-0.0032955311
-1.8658702e-09
0.099332168
-0.0032193137
-1.3454999e-09
0.10247219
-0.0031400231
-6.6745441e-10
0.10553032
-0.0030581247
6.0568336e-11
0.10850439
-0.0029740781
7.454537e-10
0.11139273
-0.0028883373
1.1876591e-09
0.11419408
-0.0028013523
1.2471262e-09
0.11690765
-0.0027135714
6.8382223e-10
0.1195331
-0.0026254459
-5.8435102e-10
0.12207054
-0.0025374412
-2.6921303e-09
0.12452059
-0.0024500383
-5.4779275e-09
0.12688439
-0.0023637902
-8.7589124e-09
0.12916362
-0.0022792241
-1.1987764e-08
0.13136096
-0.0021973207
-1.4492229e-08
0.13347917
-0.0021182025
-1.5368814e-08
0.13552503
-0.002045845
-1.3694176e-08
0.13749892
-0.0019738735
-8.8830692e-09
0.13943147
-0.0019325518
-3.2111565e-10
0.14127708
-0.0018456276
1.0812517e-08
0.14325609
-0.0019790274
2.545321e-08
-0.0016737816
3.5747906e-08
0.0028841305
-0.003771937
0.0049874327
-0.0043310845
0.0073372136
-0.0048371937
0.0098709913
-0.0052238849
0.012567719
-0.0055627408
0.015415114
-0.0058720443
0.018396467
-0.0061457346
0.021495399
-0.0063850498
0.024697922
-0.0065947045
0.027991308
-0.0067774431
0.031363458
-0.0069348313
0.03480293
-0.0070683857
0.038298905
-0.0071795182
0.041841081
-0.0072693934
0.045419588
-0.0073389934
0.049024946
-0.0073891924
0.052648034
-0.007420788
0.056280073
-0.0074345252
0.059912619
-0.0074311219
0.06353756
-0.0074112911
0.067147132
-0.0073757556
0.070733927
-0.0073252601
0.074290911
-0.0072605775
0.077811444
-0.0071825127
0.081289293
-0.0070919029
0.084718652
-0.0069896145
0.088094153
-0.0068765396
0.091410878
-0.0067535903
0.094664364
-0.0066216919
0.09785061
-0.0064817771
0.10096608
-0.00633478
0.10400768
-0.0061816301
0.10697281
-0.0060232493
0.10985928
-0.0058605495
0.11266537
-0.0056944319
0.11538981
-0.0055257904
0.11803176
-0.0053555172
0.12059082
-0.0051845111
0.12306708
-0.0050137005
0.12546109
-0.0048440441
0.12777395
-0.0046766479
0.13000729
-0.0045125645
0.13216372
-0.0043537539
0.13424598
-0.0042004636
0.13626075
-0.0040606173
0.13820843
-0.0039215509
0.14011923
-0.0038433556
0.14194851
-0.0036749001
0.14391164
-0.0039421655
-0.0033446953
0.015072192
-0.0053490683
0.016909682
-0.0061685752
0.01897029
-0.0068978014
0.021184056
-0.0074376511
0.023539367
-0.0079180518
0.026032618
-0.0083652947
0.028651225
-0.0087643424
0.03138174
-0.0091155647
0.034213095
-0.0094260594
0.037135096
-0.0096994444
0.040137661
-0.0099373961
0.043210969
-0.010141693
0.046345537
-0.010314086
0.049532157
-0.010456013
0.05276185
-0.010568686
0.056025859
-0.010653202
0.059315656
-0.010710585
0.062622948
-0.010741817
0.065939687
-0.010747861
0.069258095
-0.010729699
0.072570679
-0.01068834
0.075870262
-0.010624842
0.079149999
-0.010540315
0.082403409
-0.010435922
0.085624389
-0.010312883
0.088807239
-0.010172465
0.091946674
-0.010015975
0.095037839
-0.009844755
0.098076315
-0.0096601682
0.10105813
-0.0094635914
0.10397975
-0.0092564035
0.1068381
-0.00903998
0.10963054
-0.0088156864
0.11235487
-0.0085848743
0.11500932
-0.0083488825
0.11759256
-0.0081090395
0.12010372
-0.0078666743
0.12254234
-0.0076231276
0.12490842
-0.0073797866
0.12720247
-0.0071380864
0.1294255
-0.0068996843
0.1315791
-0.0066661605
0.1336658
-0.0064404501
0.13568828
-0.0062229448
0.1376531
-0.0060254357
0.13956076
-0.0058292159
0.14144056
-0.005723155
0.14325014
-0.0054844775
0.14519446
-0.0058864838
-0.0050235628
0.0321316
-0.0065384758
0.033553375
-0.0075903502
0.035166012
-0.0085104389
0.036896542
-0.0091681808
0.038745681
-0.0097671908
0.040719775
-0.010339388
0.042811691
-0.010856259
0.045011943
-0.011315816
0.047312988
-0.011727105
0.049707639
-0.012094096
0.05218823
-0.012417986
0.054746846
-0.012700309
0.057375522
-0.012942763
0.060066266
-0.013146757
0.062811067
-0.013313487
0.06560194
-0.013444075
0.068430968
-0.013539613
0.071290344
-0.013601192
0.074172412
-0.01362993
0.077069711
-0.013626997
0.079975004
-0.013593634
0.082881324
-0.013531162
0.085782
-0.013440991
0.088670691
-0.013324613
0.09154141
-0.013183603
0.09438855
-0.013019604
0.097206899
-0.012834324
0.099991657
-0.012629513
0.10273844
-0.012406956
0.10544331
-0.012168457
0.10810273
-0.011915828
0.11071363
-0.011650876
0.11327334
-0.011375397
0.11577964
-0.011091174
0.11823073
-0.010799972
0.12062524
-0.010503547
0.12296222
-0.010203658
0.12524118
-0.0099020856
0.12746206
-0.0096006709
0.1296253
-0.0093013264
0.13173188
-0.009006261
0.13378331
-0.0087175871
0.13578207
-0.0084392106
0.13773082
-0.0081716972
0.13963597
-0.007930583
0.14149825
-0.0076914977
0.1433456
-0.0075705107
0.14513917
-0.0072780439
0.14706876
-0.0078160721
-0.0067263966
0.052746731
-0.0071849936
0.053593896
-0.0084375149
0.054595008
-0.0095115512
0.05568444
-0.010257613
0.056877059
-0.01095981
0.058187202
-0.011649531
0.059613419
-0.012282477
0.061150884
-0.012853281
0.062795424
-0.013371646
0.064542485
-0.013841156
0.066386588
-0.014262089
0.06832151
-0.014635231
0.070340533
-0.014961786
0.072436607
-0.015242832
0.074602441
-0.015479321
0.076830581
-0.015672215
0.0791135
-0.015822532
0.081443678
-0.01593137
0.083813665
-0.015999917
0.086216148
-0.01602948
0.088644001
-0.016021487
0.091090335
-0.015977496
0.093548536
-0.015899192
0.096012304
-0.015788382
0.098475687
-0.015646985
0.1009331
-0.015477015
0.10337934
-0.015280567
0.10580962
-0.015059796
0.10821957
-0.014816906
0.11060524
-0.014554121
0.11296309
-0.014273679
0.11529003
-0.013977816
0.11758339
-0.013668757
0.11984092
-0.013348705
0.1220608
-0.013019855
0.12424164
-0.012684387
0.12638247
-0.012344488
0.12848277
-0.012002378
0.13054245
-0.011660356
0.13256194
-0.011320815
0.1345422
-0.01098652
0.13648474
-0.010660125
0.13839203
-0.010346502
0.14026676
-0.010046431
0.14211522
-0.0097790378
0.14393849
-0.0095147716
0.14576288
-0.009394897
0.14755399
-0.0090691578
0.14948283
-0.0097449131
-0.0084765608
0.075337736
-0.0071199286
0.075448967
-0.0085487465
0.075679928
-0.0097425117
0.075987232
-0.010564917
0.076398983
-0.011371561
0.076932067
-0.012182616
0.07758956
-0.012939969
0.078371434
-0.013635155
0.079276041
-0.014276253
0.080300276
-0.014865391
0.081439938
-0.015401752
0.082689779
-0.015885071
0.084043663
-0.01631567
0.085494862
-0.016694031
0.087036256
-0.017020715
0.088660453
-0.017296412
0.0903599
-0.01752198
0.092126992
-0.017698462
0.093954166
-0.017827091
0.095833974
-0.017909289
0.097759152
-0.017946664
0.099722668
-0.017941012
0.10171778
-0.017894306
0.10373807
-0.017808674
0.10577749
-0.017686396
0.10783034
-0.017529865
0.10989135
-0.017341582
0.11195568
-0.017124121
0.11401888
-0.016880113
0.11607698
-0.016612216
0.11812641
-0.016323108
0.12016405
-0.016015459
0.12218722
-0.015691931
0.12419368
-0.015355163
0.12618161
-0.015007778
0.12814961
-0.014652393
0.13009676
-0.014291632
0.13202254
-0.01392816
0.13392693
-0.013564745
0.13581038
-0.013204271
0.13767393
-0.012850069
0.13951916
-0.012505349
0.1413486
-0.012175945
0.14316507
-0.011862905
0.1449748
-0.011588764
0.14677937
-0.011319339
0.14860326
-0.011218788
0.15041731
-0.010883209
0.15237126
-0.011698868
-0.010306242
0.098150452
-0.0061982064
0.097388814
-0.0077871088
0.096718459
-0.0090721566
0.096140357
-0.0099868152
0.095690704
-0.010921908
0.095380762
-0.011872673
0.095215931
-0.012775138
0.095200259
-0.013619483
0.095333324
-0.014409318
0.095611903
-0.01514397
0.096031681
-0.015821529
0.096587292
-0.016440683
0.097272303
-0.01700068
0.09807953
-0.017501258
0.099001347
-0.017942532
0.10002984
-0.018324906
0.10115694
-0.018649081
0.10237454
-0.01891606
0.10367459
-0.019127138
0.10504918
-0.019283883
0.10649064
-0.019388123
0.10799156
-0.019441928
0.10954485
-0.019447596
0.11114379
-0.019407621
0.11278208
-0.019324678
0.1144538
-0.019201587
0.1161535
-0.019041284
0.11787618
-0.0188468
0.11961729
-0.018621226
0.12137276
-0.018367686
0.12313898
-0.018089325
0.1249128
-0.017789276
0.12669152
-0.017470659
0.12847294
-0.017136574
0.13025525
-0.016790097
0.13203716
-0.016434296
0.13381778
-0.016072254
0.13559672
-0.0157071
0.13737407
-0.015342091
0.13915041
-0.014980616
0.14092694
-0.014626593
0.1427054
-0.014283808
0.14448851
-0.013959065
0.14627933
-0.01365372
0.14808412
-0.013393551
0.14990508
-0.013140304
0.15176486
-0.013078564
0.15363998
-0.012758325
0.15565774
-0.013716633
-0.012257137
0.11931306
-0.0043788867
0.11762521
-0.0060992609
0.11599081
-0.0074377626
0.11449382
-0.0084898258
0.11317051
-0.0095985961
0.11201842
-0.010720578
0.11104304
-0.011799759
0.11025069
-0.01282714
0.10964084
-0.013799467
0.10920893
-0.014712059
0.10894919
-0.015561791
0.10885501
-0.0163465
0.10891884
-0.017064506
0.10913241
-0.017714833
0.10948706
-0.018297184
0.10997391
-0.018811754
0.11058399
-0.019259162
0.11130837
-0.019640439
0.11213824
-0.01995701
0.11306502
-0.020210658
0.11408039
-0.020403491
0.11517638
-0.020537922
0.11634542
-0.020616634
0.11758035
-0.020642549
0.11887447
-0.020618797
0.12022155
-0.020548676
0.12161589
-0.020435621
0.12305226
-0.020283168
0.12452595
-0.020094917
0.12603278
-0.019874511
0.12756905
-0.0196256
0.1291316
-0.019351826
0.13071775
-0.019056811
0.13232532
-0.018744145
0.13395262
-0.018417395
0.13559844
-0.018080114
0.13726206
-0.017735873
0.13894325
-0.017388296
0.14064232
-0.017041153
0.14236007
-0.016698372
0.14409796
-0.016364481
0.14585802
-0.016043866
0.14764327
-0.015744315
0.14945709
-0.015467543
0.15130594
-0.0152424
0.15319275
-0.015027117
0.15513838
-0.015024194
0.15712528
-0.014745219
0.15925819
-0.015849547
-0.014380279
0.13700868
-0.0018032068
0.13449447
-0.0035850526
0.13194019
-0.0048834889
0.12958787
-0.0061375023
0.12746468
-0.0074754086
0.12555204
-0.0088079338
0.1238528
-0.010100524
0.1223721
-0.011346434
0.12110841
-0.012535778
0.12005601
-0.013659658
0.11920743
-0.014713215
0.11855438
-0.015693449
0.11808791
-0.016598031
0.11779853
-0.017425457
0.11767644
-0.018175096
0.11771169
-0.018846999
0.11789431
-0.019441786
0.11821447
-0.019960594
0.1186625
-0.020405043
0.11922904
-0.020777199
0.11990507
-0.021079518
0.12068197
-0.02131482
0.12155158
-0.021486244
0.12250623
-0.021597203
0.12353879
-0.021651351
0.12464264
-0.021652533
0.12581176
-0.021604742
0.12704068
-0.021512086
0.1283245
-0.021378739
0.12965891
-0.021208914
0.13104014
-0.021006831
0.13246501
-0.020776694
0.13393087
-0.020522675
0.13543563
-0.020248906
0.13697772
-0.01995949
0.13855612
-0.019658509
0.14017031
-0.019350064
0.14182033
-0.019038312
0.14350675
-0.018727575
0.14523073
-0.018422353
0.14699407
-0.018127817
0.14879919
-0.017848989
0.15064953
-0.017594658
0.15254894
-0.017366948
0.15450416
-0.017197625
0.15651897
-0.017041927
0.15861256
-0.017117781
0.16077339
-0.016906053
0.16308402
-0.018160174
-0.016735035
0.15014522
0.00073021838
0.14685935
-0.00029917464
0.14356564
-0.0015897849
0.14052189
-0.0030937481
0.1377314
-0.0046849175
0.13518795
-0.0062644854
0.13289342
-0.0078059993
0.13084794
-0.0093009507
0.12904909
-0.01073693
0.12749172
-0.012102284
0.12616804
-0.013389536
0.12506869
-0.014594105
0.12418356
-0.015712893
0.12350202
-0.016743917
0.12301314
-0.017686224
0.12270589
-0.018539743
0.12256924
-0.019305136
0.12259235
-0.019983706
0.12276464
-0.020577335
0.12307588
-0.021088434
0.12351624
-0.021519882
0.1240764
-0.021874978
0.12474754
-0.022157386
0.12552143
-0.022371094
0.12639043
-0.022520351
0.12734752
-0.022609624
0.12838632
-0.022643546
0.12950111
-0.022626867
0.13068678
-0.02256441
0.13193889
-0.022461031
0.13325365
-0.022321585
0.13462786
-0.022150902
0.13605895
-0.021953767
0.13754496
-0.021734915
0.1390845
-0.021499037
0.14067679
-0.021250797
0.1423216
-0.020994871
0.14401928
-0.020735997
0.1457708
-0.020479093
0.14757771
-0.020229266
0.14944227
-0.019992376
0.15136739
-0.019774104
0.15335701
-0.019584283
0.15541551
-0.019425442
0.15755012
-0.019332236
0.15976528
-0.019257087
0.16207932
-0.019431816
0.16448455
-0.019311286
0.16704787
-0.020723493
-0.019384537
0.1890487
0.0053263885
-0.19364487
0.1852444
0.0035051306
0.18185825
0.0017963661
0.17871929
4.5205407e-05
0.17579019
-0.001755808
0.17304591
-0.0035202067
0.17046827
-0.0052283661
0.16804833
-0.0068810062
0.16578223
-0.0084708272
0.16366785
-0.0099879042
0.16170337
-0.01142506
0.15988673
-0.012777466
0.15821533
-0.014041495
0.15668593
-0.015214518
0.15529467
-0.016294957
0.15403712
-0.017282199
0.15290844
-0.018176452
0.15190339
-0.018978654
0.15101646
-0.019690415
0.15024198
-0.020313952
0.14957413
-0.02085203
0.14900706
-0.021307904
0.14853493
-0.02168526
0.14815199
-0.021988159
0.14785262
-0.022220976
0.14763134
-0.022388346
0.1474829
-0.022495106
0.14740228
-0.022546242
0.1473847
-0.02254684
0.14742571
-0.022502036
0.14752111
-0.022416987
0.14766704
-0.022296835
0.14785997
-0.022146689
0.14809667
-0.021971618
0.14837428
-0.021776652
0.14869029
-0.021566804
0.14904253
-0.021347111
0.14942922
-0.021122682
0.14984895
-0.020898823
0.15030074
-0.020681056
0.15078407
-0.020475707
0.15129888
-0.020288913
0.15184582
-0.020131228
0.15242586
-0.020005484
0.15304187
-0.019948246
0.15369485
-0.019910069
0.15439505
-0.020132014
0.1551328
-0.020049029
0.15595714
-0.021547838
-0.020228538
0.21699291
0.0087188469
-0.22038537
0.21352517
0.0069728657
0.21031859
0.0050029521
0.20721976
0.0031440336
0.20417992
0.0012840362
0.20123003
-0.00057031892
0.19838701
-0.0023853533
0.19565543
-0.0041494175
0.1930412
-0.0058565976
0.1905512
-0.0074979049
0.18819067
-0.0090645351
0.18596307
-0.01054986
0.18387043
-0.011948853
0.1819135
-0.013257594
0.18009182
-0.014473274
0.17840381
-0.015594194
0.17684701
-0.016619647
0.17541816
-0.017549807
0.1741134
-0.018385657
0.17292836
-0.019128914
0.1718583
-0.019781964
0.17089818
-0.020347785
0.1700428
-0.020829882
0.16928686
-0.021232219
0.16862503
-0.02155915
0.16805204
-0.021815354
0.16756271
-0.022005771
0.167152
-0.022135537
0.16681509
-0.022209931
0.16654738
-0.022234322
0.16634452
-0.022214125
0.16620245
-0.022154766
0.16611742
-0.02206166
0.166086
-0.021940197
0.1661051
-0.021795747
0.16617196
-0.021633672
0.16628423
-0.021459375
0.16643989
-0.021278347
0.16663737
-0.0210963
0.16687549
-0.020919182
0.16715358
-0.02075379
0.16747144
-0.020606777
0.16782951
-0.020489302
0.16822889
-0.020404855
0.16867151
-0.020390872
0.16916025
-0.020398808
0.16969892
-0.020670686
0.17029313
-0.020643235
0.17094455
-0.022199254
-0.020959884
0.24389268
0.01143726
-0.24661109
0.2410481
0.0098174463
0.23820087
0.0078501795
0.23536018
0.0059847259
0.232489
0.0041552193
0.22960812
0.0023105526
0.22674879
0.0004739828
0.22393032
-0.0013309471
0.22116867
-0.0030949466
0.2184798
-0.0048090427
0.21587763
-0.00646236
0.21337318
-0.0080454152
0.21097513
-0.0095507992
0.20869008
-0.010972544
0.20652273
-0.012305921
0.20447602
-0.013547485
0.20255138
-0.014695008
0.20074893
-0.015747357
0.19906767
-0.016704395
0.19750566
-0.017566902
0.19606018
-0.018336487
0.1947279
-0.019015505
0.19350499
-0.019606972
0.19238726
-0.020114487
0.19137026
-0.020542148
0.19044938
-0.020894476
0.18961995
-0.02117634
0.18887729
-0.021392882
0.18821681
-0.021549454
0.18763405
-0.021651555
0.1871247
-0.021704781
0.18668472
-0.021714779
0.18631028
-0.021687224
0.18599788
-0.021627795
0.1857443
-0.021542174
0.1855467
-0.021436064
0.18540255
-0.021315228
0.18530974
-0.02118554
0.18526656
-0.021053118
0.18527173
-0.020924356
0.18532446
-0.020806516
0.1854245
-0.020706818
0.1855721
-0.0206369
0.18576852
-0.020601278
0.18601478
-0.02063713
0.18631576
-0.020699784
0.18666814
-0.021023066
0.1870946
-0.021069696
0.18754192
-0.022646571
-0.021554556
0.26938812
0.013465458
-0.27141631
0.26722514
0.011980418
0.26488868
0.010186642
0.26245504
0.0084183641
0.25993225
0.006678008
0.2573305
0.0049123079
0.2546759
0.0031285771
0.25199266
0.0013522979
0.24930078
-0.00040307225
0.24662013
-0.0021283881
0.24397002
-0.0038122476
0.24136762
-0.0054430174
0.23882771
-0.0070108892
0.23636283
-0.0085076635
0.23398333
-0.0099264241
0.23169745
-0.011261598
0.22951142
-0.012508985
0.22742974
-0.013665671
0.22545527
-0.014729932
0.22358952
-0.015701151
0.22183276
-0.016579725
0.22018423
-0.017366977
0.21864232
-0.018065062
0.2172047
-0.018676869
0.21586849
-0.019205934
0.21463036
-0.019656346
0.21348668
-0.020032663
0.21243363
-0.020339823
0.21146724
-0.02058307
0.21058357
-0.02076788
0.20977869
-0.020899899
0.2090488
-0.020984896
0.20839029
-0.021028715
0.20779976
-0.021037259
0.20727406
-0.021016475
0.20681036
-0.02097237
0.20640618
-0.02091104
0.20605937
-0.02083873
0.2057682
-0.020761957
0.20553141
-0.020687558
0.20534814
-0.020623253
0.20521819
-0.020576861
0.20514168
-0.020560396
0.20512007
-0.020579667
0.2051536
-0.020670658
0.20524879
-0.020794978
0.20539611
-0.021170386
0.20563272
-0.021306302
0.20585531
-0.022869163
-0.021987086
0.2930857
0.014792972
-0.29441321
0.29161034
0.013455774
0.28989204
0.011904947
0.28799789
0.010312511
0.28596282
0.0087130744
0.28379768
0.0070774474
0.2815209
0.0054053633
0.27915574
0.0037174559
0.27672354
0.0020291285
0.27424445
0.00035069479
0.27173873
-0.001306522
0.26922615
-0.0029304361
0.26672508
-0.0045098206
0.26425216
-0.0060347472
0.26182219
-0.0074964552
0.259448
-0.0088874026
0.25714041
-0.010201391
0.25490831
-0.011433573
0.25275877
-0.012580394
0.25069716
-0.01363954
0.2487273
-0.014609865
0.24685163
-0.01549131
0.24507138
-0.016284814
0.24338673
-0.016992219
0.24179697
-0.017616169
0.24030064
-0.01816002
0.23889571
-0.018627735
0.23757968
-0.019023793
0.23634972
-0.019353105
0.23520276
-0.019620924
0.23413564
-0.019832775
0.23314514
-0.019994395
0.2322281
-0.020111679
0.23138149
-0.020190651
0.23060246
-0.020237441
0.22988838
-0.020258294
0.22923694
-0.020259593
0.22864613
-0.020247918
0.22811433
-0.02023016
0.22764036
-0.020213586
0.22722346
-0.020206353
0.22686349
-0.02021689
0.22656059
-0.020257501
0.22631638
-0.020335456
0.22613056
-0.020484835
0.22601081
-0.020675229
0.22594264
-0.021102219
0.22597419
-0.021337849