/*--------------------------------*- C++ -*----------------------------------*\
  =========                 |
  \\      /  F ield         | OpenFOAM: The Open Source CFD Toolbox
   \\    /   O peration     | Website:  https://openfoam.org
    \\  /    A nd           | Version:  6
     \\/     M anipulation  |
\*---------------------------------------------------------------------------*/
FoamFile
{
    version     2.0;
    format      ascii;
    class       surfaceScalarField;
    location    "10";
    object      phi;
}
// * * * * * * * * * * * * * * * * * * * * * * * * * * * * * * * * * * * * * //

dimensions      [0 3 -1 0 0 0 0];

internalField   nonuniform List<scalar> 
18180
(
0.00036949557
-0.00024078595
-0.00012870957
0.0015106229
-0.0017035539
0.00056242666
0.0034889658
-0.0040367116
0.0020583687
0.0063687837
-0.0071510086
0.0042711908
0.010211429
-0.010990231
0.0071475851
0.015071942
-0.015508317
0.010647804
0.020994885
-0.020663097
0.014740155
0.028009863
-0.026412884
0.019397906
0.036127008
-0.032712707
0.024595563
0.045332835
-0.039511274
0.030305446
0.055587014
-0.046749147
0.036494968
0.066820581
-0.054358152
0.043124585
0.078936143
-0.062262054
0.050146492
0.091810573
-0.070378486
0.057504057
0.10530067
-0.078622118
0.065132016
0.11925218
-0.086908984
0.072957481
0.13351133
-0.095161631
0.080902477
0.14794234
-0.10331437
0.08888336
0.16249304
-0.11133222
0.096781527
-0.11920345
0.10439718
0.1772993
0.00045291321
-0.00069369913
0.0018274515
-0.0030780922
0.0041781424
-0.0063874025
0.0075562382
-0.010529104
0.012006183
-0.015440175
0.017560263
-0.021062397
0.02423303
-0.027335865
0.032016048
-0.034195902
0.04087345
-0.041570108
0.050738943
-0.049376766
0.061514859
-0.057525063
0.073073704
-0.065916997
0.085262392
-0.074450742
0.097909071
-0.083025166
0.110832
-0.091545045
0.12384945
-0.099926438
0.1367893
-0.10810148
0.14949801
-0.11602308
0.16184177
-0.12367599
-0.1310052
0.17364352
0.00054030171
-0.0012340008
0.0021497897
-0.0046875802
0.0048643062
-0.0091019189
0.0087138527
-0.014378651
0.013716279
-0.020442602
0.019870134
-0.027216251
0.027148315
-0.034614046
0.035493198
-0.042540785
0.044813897
-0.050890807
0.054986295
-0.059549165
0.065856247
-0.068395015
0.077245939
-0.077306689
0.088962976
-0.086167779
0.10081131
-0.094873499
0.11260275
-0.10333649
0.12416754
-0.11149123
0.13536252
-0.11929645
0.14607489
-0.12673545
0.15621529
-0.13381639
-0.14051598
0.16572607
0.00062933508
-0.0018633359
0.0024678289
-0.0065260739
0.0055232028
-0.012157293
0.0097944578
-0.018649906
0.015262277
-0.025910421
0.021880694
-0.033834668
0.02957123
-0.042304582
0.038220109
-0.051189665
0.047679107
-0.060349805
0.057770341
-0.069640399
0.068294763
-0.078919437
0.079043545
-0.088055471
0.089811099
-0.096935332
0.10040811
-0.10547051
0.11067301
-0.11360139
0.12048045
-0.12129867
0.12974594
-0.12856194
0.138426
-0.13541551
0.14651259
-0.14190299
-0.14805161
0.15404823
0.00071621602
-0.0025795519
0.0027669472
-0.0085768051
0.0061218112
-0.015512157
0.010738723
-0.023266818
0.016551274
-0.031722972
0.023460446
-0.04074384
0.031330965
-0.0501751
0.039992422
-0.059851122
0.049245274
-0.069602657
0.058871194
-0.079266319
0.068646552
-0.088694795
0.07835729
-0.097766209
0.087813167
-0.10639121
0.096859514
-0.11451686
0.10538504
-0.12212691
0.11332499
-0.12923862
0.12065976
-0.13589671
0.12740968
-0.14216543
0.13362708
-0.14812039
-0.15382695
0.13940242
0.0007963191
-0.0033758709
0.0030299724
-0.010810458
0.0066230547
-0.019105239
0.011483418
-0.028127181
0.017490048
-0.037729602
0.024486545
-0.047740337
0.032281469
-0.057970024
0.040654801
-0.068224454
0.049369642
-0.078317498
0.058187486
-0.088084163
0.066884778
-0.097392087
0.07526826
-0.10614969
0.083186895
-0.11430984
0.090538889
-0.12186885
0.097273153
-0.12886117
0.10338565
-0.13535112
0.10891183
-0.14142288
0.11391679
-0.14717039
0.11848516
-0.15268876
-0.15806169
0.12271989
0.00086463607
-0.004240507
0.0032389153
-0.013184737
0.0069898085
-0.022856132
0.011968743
-0.033106115
0.017996619
-0.043757478
0.024860878
-0.054604596
0.03232123
-0.065430376
0.040121887
-0.076025111
0.048008152
-0.086203763
0.055744496
-0.095820507
0.063131067
-0.10477866
0.070015991
-0.11303461
0.07630181
-0.12059566
0.081945537
-0.12751258
0.086953051
-0.13386869
0.091369374
-0.13976745
0.095266895
-0.1453204
0.098733632
-0.15063713
0.10186325
-0.15581838
-0.16094971
0.10475128
0.00091590517
-0.0051564121
0.0033759661
-0.015644798
0.0071877209
-0.026667887
0.012143812
-0.038062206
0.018008685
-0.049622351
0.024520798
-0.061116709
0.031404217
-0.072313794
0.038385807
-0.083006701
0.04521457
-0.093032526
0.051679442
-0.10228538
0.057622333
-0.11072155
0.062944447
-0.11835673
0.067605391
-0.12525661
0.071616002
-0.13152319
0.075026851
-0.13727954
0.077914805
-0.1426554
0.080369975
-0.14777557
0.082484852
-0.152752
0.084346662
-0.15768019
-0.16263713
0.08603408
0.00094369242
-0.0061001045
0.0034234271
-0.018124533
0.0071873153
-0.030431775
0.011971372
-0.042846263
0.017490363
-0.055141342
0.02344599
-0.067072337
0.029543705
-0.07841151
0.035512867
-0.088975862
0.041125867
-0.098645526
0.046212363
-0.10737187
0.050666085
-0.11517527
0.054443568
-0.12213421
0.057555886
-0.12836893
0.060055668
-0.13402297
0.062022143
-0.13924601
0.06354685
-0.14418011
0.0647219
-0.14895062
0.06563191
-0.15366201
0.066349694
-0.15839797
-0.1632221
0.066934663
0.00094485053
-0.007044955
0.0033738706
-0.020553553
0.0069780261
-0.034035931
0.011442849
-0.047311086
0.01644481
-0.060143302
0.021664917
-0.072292444
0.026808925
-0.083555518
0.031627561
-0.093794498
0.035932221
-0.10295019
0.039602876
-0.11104253
0.042587126
-0.11815952
0.044891396
-0.12443848
0.046566813
-0.13004434
0.047692885
-0.13514904
0.048361906
-0.13991503
0.048666234
-0.14448443
0.048689523
-0.14897391
0.048502104
-0.15347459
0.048159777
-0.15805565
0.047703907
-0.16276623
-0.00024855871
0.00024855848
2.6634555e-10
-0.00083033518
0.00058177575
7.6653849e-10
-0.0016437515
0.00081341512
1.2159675e-09
-0.0026125006
0.0009687475
1.6403066e-09
-0.0036758408
0.0010633383
2.0493252e-09
-0.0047843667
0.0011085235
2.4337953e-09
-0.0058969745
0.0011126051
2.8024473e-09
-0.0069783158
0.0010813382
3.1416311e-09
-0.0079967553
0.0010184361
3.4652782e-09
-0.0089227115
0.00092595253
3.7542447e-09
-0.0097272493
0.00080453379
4.0288189e-09
-0.010380847
0.00065359339
4.2620221e-09
-0.010852295
0.00047144378
4.4786149e-09
-0.011107708
0.00025540871
4.641191e-09
-0.011109686
1.9734294e-06
4.7791045e-09
-0.010816788
-0.00029290334
4.838895e-09
-0.01018335
-0.00063344203
4.8551956e-09
-0.0091584545
-0.0010249004
4.7610616e-09
-0.0076845912
-0.0014738678
4.5984062e-09
-0.0019682287
-0.0057163667
4.3000384e-09
-0.00022827978
0.00047683829
-0.00075742617
0.0011109222
-0.0014882053
0.0015441943
-0.0023444279
0.0018249701
-0.0032641843
0.0019830948
-0.004195894
0.0020402332
-0.0050954189
0.0020121301
-0.0059236135
0.0019095329
-0.006644337
0.0017391597
-0.0072228237
0.0015044393
-0.0076242995
0.0012060097
-0.0078127682
0.00084206219
-0.0077499306
0.00040860622
-0.0073942118
-0.00010030995
-0.0066999522
-0.00069228602
-0.0056168646
-0.0013759908
-0.0040898498
-0.0021604568
-0.0020587625
-0.0030559875
0.00054201934
-0.0040746496
-0.0051896537
0.0037634444
-0.00018825856
0.00066509688
-0.00061353427
0.0015361979
-0.0011817637
0.0021124238
-0.0018176407
0.0024608472
-0.0024575884
0.0026230425
-0.0030464079
0.0026290527
-0.0035347315
0.0025004537
-0.0038768076
0.0022516091
-0.0040286762
0.0018910283
-0.0039466597
0.0014224228
-0.0035860952
0.00084544522
-0.0029002295
0.00015619661
-0.0018392738
-0.00065234941
-0.00034962605
-0.0015899576
0.0016268331
-0.0026687451
0.0041533033
-0.0039024608
0.0072982287
-0.0053053822
0.011134642
-0.0068924005
0.01573952
-0.0086795279
-0.010621165
0.021171032
-0.00013280114
0.00079789804
-0.00041266503
0.0018160618
-0.000752297
0.0024520558
-0.001077751
0.0027863012
-0.0013235329
0.0028688244
-0.001430033
0.0027355529
-0.0013414704
0.0024118912
-0.0010040436
0.0019141823
-0.00036440526
0.00125139
0.00063158159
0.000426436
0.0020398489
-0.00056282203
0.0039189045
-0.0017228589
0.0063304241
-0.003063869
0.0093396917
-0.0045992251
0.013015937
-0.0063449901
0.017432681
-0.0083192046
0.022667912
-0.010540613
0.028803296
-0.013027785
0.035923067
-0.015799299
-0.018787494
0.044089396
-6.720374e-05
0.00086510181
-0.00017211177
0.0019209699
-0.0002343713
0.0025143153
-0.00018152507
0.0027334551
5.3831641e-05
0.0026334677
0.00053579172
0.0022535928
0.0013266196
0.0016210634
0.0024880772
0.00075272478
0.0040825262
-0.00034305888
0.0061737619
-0.0016647997
0.0088275294
-0.0032165895
0.012111743
-0.005007072
0.016096497
-0.0070486233
0.020853874
-0.0093566021
0.02645757
-0.011948686
0.032982601
-0.014844236
0.040505308
-0.018063321
0.049103152
-0.021625628
0.058854866
-0.025551013
-0.029749522
0.069816894
3.5344444e-06
0.00086156739
9.1479332e-05
0.0018330251
0.00033830762
0.0022674871
0.00081516549
0.0022565972
0.0015911475
0.0018574858
0.0027342504
0.00111049
0.0043122405
4.3073339e-05
0.0063934402
-0.0013284749
0.0090472219
-0.0029968405
0.01234409
-0.0049616679
0.016355519
-0.0072280179
0.021153499
-0.0098050519
0.026809697
-0.012704821
0.033394284
-0.015941189
0.040974531
-0.019528933
0.049613502
-0.023483206
0.059369512
-0.027819331
0.07029691
-0.032553026
0.08244945
-0.037703553
-0.043163729
0.095863657
7.5759755e-05
0.00078580767
0.00036538649
0.0015433984
0.0009392038
0.0016936698
0.0018673573
0.0013284437
0.0032201565
0.00050468659
0.0050684096
-0.00073776299
0.0074836619
-0.0023721789
0.010538131
-0.0043829441
0.014304338
-0.0067630475
0.018854493
-0.0095118228
0.024259442
-0.012632966
0.030587176
-0.016132786
0.037900939
-0.020018585
0.046256963
-0.024297212
0.055701939
-0.028973909
0.066270601
-0.034051869
0.077984401
-0.039533131
0.090853007
-0.045421632
0.10488215
-0.051732695
-0.058358885
0.12007731
0.00014764581
0.00063816189
0.00064239103
0.0010486532
0.0015520761
0.00078398482
0.0029459533
-6.5433392e-05
0.0048947441
-0.0014441042
0.00747032
-0.0033133388
0.01074501
-0.0056468686
0.014790706
-0.0084286406
0.019677617
-0.011649959
0.025472521
-0.015306727
0.032236589
-0.019397034
0.040022779
-0.023918976
0.048872876
-0.028868682
0.058814297
-0.034238633
0.069856867
-0.04001648
0.081989936
-0.046184938
0.095180868
-0.052724063
0.10937681
-0.05961757
0.12451417
-0.066870056
-0.074400269
0.14055555
0.00021889933
0.0004192626
0.00092014507
0.00034740748
0.0021698922
-0.00046576223
0.004035939
-0.0019314801
0.0065876824
-0.0039958477
0.0098949934
-0.0066206497
0.014026669
-0.0097785445
0.019048444
-0.013450416
0.025020523
-0.017622037
0.031994661
-0.022280865
0.040010883
-0.027413256
0.049093958
-0.03300205
0.059249807
-0.039024531
0.070462044
-0.04545087
0.082688821
-0.052243256
0.095860167
-0.059356284
0.10987661
-0.066740505
0.12461147
-0.074352432
0.13992289
-0.082181472
-0.090211228
0.15573385
0.00029055304
0.0012003872
0.0027929938
0.0051327044
0.0082844419
0.012311596
0.017273207
0.023220697
0.030194222
0.038218804
0.047300515
0.057423051
0.068545011
0.080598198
0.093486958
0.10708816
0.12125013
0.13578106
0.15038111
0.16456707
-0.0025167547
-0.003199617
5.0737546e-09
0.0013262843
-0.0038430431
4.226046e-09
0.0058332332
-0.0045069522
3.3862626e-09
0.010969053
-0.0051358224
2.5603554e-09
0.016735544
-0.0057664924
1.6880946e-09
0.023142437
-0.0064068942
7.2604655e-10
0.030187533
-0.0070450959
-2.7771429e-10
0.037857547
-0.0076700128
-1.3873575e-09
0.046129023
-0.0082714727
-2.611152e-09
0.054966049
-0.008837022
-3.9394941e-09
0.064318603
-0.0093525492
-5.3097387e-09
0.074122376
-0.0098037664
-6.6908763e-09
0.084299346
-0.010176961
-8.0231234e-09
0.09475884
-0.010459485
-9.2868493e-09
0.10539909
-0.01064024
-1.0444447e-08
0.11610911
-0.010710003
-1.1492409e-08
0.12677064
-0.010661525
-1.2412582e-08
0.13726016
-0.010489506
-1.3203867e-08
0.14745084
-0.010190665
-1.3856067e-08
0.15721501
-0.0097641545
-1.435989e-08
0.1664276
-0.0092125777
-1.4708705e-08
0.17497129
-0.0085436762
-1.4882831e-08
0.1827437
-0.0077723949
-1.4884079e-08
0.18966626
-0.0069225426
-1.4687655e-08
0.19569319
-0.0060269152
-1.4314538e-08
0.20081807
-0.0051248687
-1.3745549e-08
0.20507525
-0.0042571603
-1.3032018e-08
0.20853449
-0.0034592365
-1.217131e-08
0.21128981
-0.0027553012
-1.1241702e-08
0.21344534
-0.0021555206
-1.0251373e-08
0.21510266
-0.001657318
-9.2727714e-09
0.21635234
-0.0012496648
-8.2992539e-09
0.21727037
-0.00091802157
-7.3661942e-09
0.2179183
-0.00064792766
-6.4514666e-09
0.21834496
-0.00042665198
-5.5653081e-09
0.21858849
-0.00024352979
-4.6921121e-09
0.21867835
-8.9848455e-05
-3.8411139e-09
0.21863705
4.1294027e-05
-3.0132282e-09
0.2184819
0.00015515853
-2.2200064e-09
0.21822626
0.00025564126
-1.4603715e-09
0.21788064
0.00034561607
-7.4665777e-10
0.2174534
0.00042724445
-8.4700343e-11
0.21695121
0.00050219242
5.1060676e-10
0.21637942
0.00057178171
1.0402544e-09
0.21574238
0.00063703727
1.4943577e-09
0.21504351
0.00069887023
1.8752483e-09
0.21428576
0.00075774872
2.1796949e-09
0.21347082
0.00081493861
2.4022527e-09
0.21260261
0.00086821216
2.5543183e-09
0.00093191935
2.4916624e-09
0.0068857756
-0.0063219481
0.010605458
-0.0075627259
0.014934936
-0.0088364297
0.019832235
-0.010033121
0.025304061
-0.011238318
0.031365181
-0.012468014
0.038016092
-0.013696008
0.04524648
-0.0149004
0.053037063
-0.016062056
0.061357018
-0.017156977
0.070162188
-0.018157719
0.079394941
-0.01903652
0.088984713
-0.019766733
0.098848981
-0.020323753
0.1088947
-0.020685964
0.11902008
-0.02083538
0.12911636
-0.020757802
0.13906956
-0.020442709
0.14876218
-0.019883282
0.15807513
-0.019077103
0.16689058
-0.018028032
0.1750964
-0.016749492
0.18259262
-0.015268621
0.18929989
-0.013629813
0.19516835
-0.011895373
0.20018469
-0.01014121
0.20437454
-0.0084470089
0.20779839
-0.0068830858
0.21054154
-0.0054984556
0.2127009
-0.0043148808
0.21437256
-0.003328973
0.21564325
-0.002520355
0.21658654
-0.0018613085
0.2172625
-0.0013238947
0.21771916
-0.00088330602
0.21799424
-0.00051861745
0.21811703
-0.00021263498
0.21811
4.8324744e-05
0.21799043
0.00027472719
0.21777173
0.0004743391
0.21746446
0.00065289466
0.21707699
0.00081471001
0.21661607
0.00096311283
0.21608711
0.0011007432
0.2154945
0.0012296473
0.21484172
0.0013516477
0.2141318
0.0014676708
0.21336647
0.0015802675
0.21254977
0.0016849119
0.0018104318
0.024101969
-0.0092528854
0.027536815
-0.010997572
0.031482002
-0.012781616
0.035890162
-0.014441282
0.040776037
-0.016124193
0.046162166
-0.017854144
0.052054185
-0.019588026
0.058447571
-0.021293786
0.065330729
-0.022945213
0.07268211
-0.024508358
0.080468237
-0.025943846
0.088643511
-0.027211793
0.097150641
-0.028273863
0.10592145
-0.029094565
0.11487816
-0.029642669
0.12393492
-0.029892144
0.13299947
-0.02982235
0.14197451
-0.029417747
0.15075892
-0.028667697
0.15924898
-0.027567154
0.16734005
-0.026119107
0.17492976
-0.024339202
0.18192311
-0.022261966
0.18823984
-0.019946547
0.19382313
-0.017478662
0.19864734
-0.014965417
0.20272215
-0.012521825
0.20609087
-0.010251807
0.20882261
-0.0082301914
0.21100068
-0.0064929532
0.21271089
-0.0050391803
0.21403284
-0.0038423014
0.21503551
-0.0028639794
0.21577626
-0.0020646535
0.21630164
-0.0014086771
0.21664865
-0.00086563299
0.2168463
-0.00041028263
0.21691701
-2.2384042e-05
0.2168781
0.00031363152
0.21674308
0.00060935854
0.21652261
0.0008733731
0.21622518
0.0011121357
0.21585766
0.0013306287
0.2154256
0.0015328053
0.21493352
0.0017217286
0.21438504
0.0019001321
0.21378333
0.0020693811
0.21313025
0.0022333461
0.21243008
0.0023850803
0.0025681077
0.046671479
-0.011834968
0.049641158
-0.01396725
0.052993412
-0.01613387
0.056684003
-0.018131873
0.060738909
-0.020179099
0.065187766
-0.022303001
0.070042324
-0.024442584
0.075305781
-0.026557243
0.080976066
-0.028615498
0.087043025
-0.030575318
0.093486456
-0.032387277
0.10027568
-0.034001019
0.10736972
-0.035367901
0.11471786
-0.036442709
0.12226073
-0.037185537
0.12993165
-0.037563062
0.1376581
-0.037548796
0.14536291
-0.037122564
0.15296509
-0.036269874
0.16038019
-0.034982252
0.16752085
-0.033259772
0.17429823
-0.031116586
0.18062526
-0.028588996
0.18642239
-0.025743677
0.1916255
-0.022681766
0.19619425
-0.019534173
0.20011832
-0.016445894
0.20341864
-0.013552122
0.20614276
-0.01095431
0.20835559
-0.0087057905
0.21012879
-0.0068123815
0.21153202
-0.0052455315
0.21262782
-0.0039597787
0.21346969
-0.0029065183
0.21410203
-0.0020410144
0.21456085
-0.00132446
0.21487478
-0.0007242068
0.21506617
-0.00021377968
0.21515246
0.00022734716
0.21514728
0.00061453647
0.21506147
0.00095918169
0.21490373
0.0012698744
0.21468112
0.0015532428
0.21439938
0.0018145483
0.21406324
0.0020578622
0.21367654
0.0022868296
0.2132427
0.0025032283
0.21276375
0.0027122942
0.21224434
0.0029044853
0.0031383341
0.071829925
-0.013847999
0.074125495
-0.01626282
0.076675528
-0.018683903
0.079447017
-0.020903362
0.082479046
-0.023211128
0.085804873
-0.025628828
0.089441294
-0.028079006
0.093399586
-0.030515535
0.097687001
-0.032902912
0.10230445
-0.035192767
0.10724502
-0.037327844
0.11249315
-0.039249151
0.11802436
-0.040899108
0.12380548
-0.042223833
0.12979548
-0.043175531
0.13594658
-0.04371417
0.14220571
-0.043807919
0.14851558
-0.043432433
0.15481538
-0.042569682
0.16104072
-0.041207582
0.16712299
-0.039342051
0.17298922
-0.036982811
0.17856308
-0.034162853
0.18376854
-0.030949139
0.18853634
-0.027449565
0.19281237
-0.023810209
0.19656568
-0.020199198
0.19979292
-0.016779363
0.20251737
-0.013678766
0.20478263
-0.010971049
0.20664355
-0.0086732999
0.20815776
-0.0067597359
0.20937984
-0.0051818598
0.21035843
-0.0038851147
0.21113525
-0.0028178362
0.21174502
-0.0019342219
0.21221584
-0.0011950315
0.21257005
-0.0005679864
0.21282519
-2.779492e-05
0.21299513
0.00044459735
0.21309094
0.00086336933
0.21312159
0.0012392306
0.21309438
0.0015804435
0.21301536
0.0018935719
0.21288954
0.0021836855
0.21272103
0.0024553399
0.21251356
0.0027106937
0.21226945
0.0029564076
0.21199382
0.003180111
0.0034557621
0.097039011
-0.015023353
0.098428576
-0.017652386
0.09997343
-0.020228757
0.10165841
-0.022588338
0.1035319
-0.025084619
0.10562487
-0.027721803
0.10795651
-0.030410638
0.1105445
-0.033103534
0.11340322
-0.035761626
0.11654213
-0.038331677
0.11996529
-0.040751007
0.12367015
-0.042954017
0.12764666
-0.044875609
0.13187703
-0.046454212
0.13633626
-0.047634752
0.14099292
-0.048370836
0.14581055
-0.048625548
0.15074886
-0.048370744
0.15576455
-0.047585377
0.16081115
-0.046254176
0.16583782
-0.044368726
0.1707878
-0.04193279
0.1755974
-0.038972449
0.18019718
-0.035548917
0.18451638
-0.031768768
0.18849054
-0.027784373
0.19207053
-0.023779189
0.19522989
-0.019938722
0.19796754
-0.016416409
0.20030481
-0.013308319
0.20227849
-0.010646985
0.20393291
-0.0084141547
0.20531363
-0.0065625778
0.20646365
-0.0050351359
0.20742148
-0.0037756687
0.20822027
-0.0027330066
0.20888754
-0.0018623086
0.20944557
-0.0011260134
0.20991208
-0.00049430571
0.21030122
5.5463317e-05
0.21062436
0.00054022649
0.2108908
0.00097279212
0.21110819
0.0013630486
0.21128291
0.0017188504
0.21142034
0.0020462587
0.21152494
0.00235074
0.21160084
0.0026347884
0.21165069
0.0029065644
0.21168021
0.0031505859
0.003456747
0.12017465
-0.015120701
0.1204526
-0.017930333
0.12082693
-0.020603082
0.12131383
-0.023075243
0.12196092
-0.025731706
0.12278911
-0.028549992
0.12381703
-0.031438562
0.12506569
-0.034352193
0.12655291
-0.03724885
0.12829307
-0.040071835
0.13029743
-0.04275537
0.13257284
-0.045229421
0.13512022
-0.047422992
0.13793389
-0.049267884
0.14100145
-0.050702307
0.14430428
-0.051673671
0.14781871
-0.052139975
0.15151737
-0.052069399
0.15537031
-0.051438325
0.15934521
-0.050229067
0.16340605
-0.048429569
0.16751082
-0.046037558
0.17160884
-0.043070476
0.17563965
-0.039579722
0.17953491
-0.035664034
0.18322451
-0.031473969
0.18664562
-0.027200297
0.18975215
-0.023045249
0.1925208
-0.019185065
0.1949516
-0.015739116
0.1970633
-0.012758686
0.19888648
-0.010237338
0.20045711
-0.0081332079
0.20181201
-0.0063900323
0.20298608
-0.0049497355
0.20401064
-0.0037575688
0.20491255
-0.0027642152
0.20571399
-0.0019274539
0.20643292
-0.0012132381
0.20708381
-0.00059543171
0.20767844
-5.4395786e-05
0.20822647
0.00042476057
0.20873597
0.00085354072
0.20921374
0.0012410853
0.20966557
0.0015944266
0.21009636
0.0019199521
0.21051071
0.0022204339
0.21091164
0.002505635
0.21130564
0.0027565911
0.0030797802
0.13947795
-0.014043103
0.13854941
-0.017001787
0.13768011
-0.019733785
0.13694933
-0.022344459
0.13639185
-0.02517423
0.13601153
-0.028169669
0.13582434
-0.031251373
0.13585082
-0.034378673
0.13610842
-0.037506455
0.13661277
-0.040576181
0.13737842
-0.043521023
0.1384176
-0.046268602
0.1397385
-0.048743892
0.14134397
-0.050873356
0.14323082
-0.052589155
0.14538979
-0.053832642
0.14780637
-0.054556554
0.15046219
-0.054725213
0.15333647
-0.05431261
0.15640678
-0.053299371
0.15964814
-0.051670937
0.16303056
-0.049419977
0.16651535
-0.046555264
0.17005206
-0.043116436
0.17357803
-0.039189996
0.17702217
-0.034918115
0.18031334
-0.030491462
0.18339069
-0.0261226
0.18621247
-0.022006846
0.18875976
-0.018286404
0.19103449
-0.015033416
0.19305388
-0.012256726
0.19484419
-0.00992352
0.19643577
-0.0079816138
0.19785962
-0.0063735822
0.19914502
-0.0050429716
0.20031803
-0.0039372256
0.20140075
-0.0030101717
0.20241138
-0.0022238667
0.20336478
-0.0015488345
0.20427316
-0.00096277279
0.20514665
-0.00044872975
0.20599379
6.4008898e-06
0.20682184
0.00041303666
0.20763709
0.00077916886
0.20844494
0.0011121073
0.20925053
0.0014148429
0.21005731
0.001698852
0.21087263
0.0019412686
0.0022659062
0.15361464
-0.011923897
0.15157645
-0.014963591
0.14953108
-0.017688421
0.14768401
-0.020497387
0.14604793
-0.023538147
0.1446086
-0.026730337
0.14337699
-0.030019766
0.14236896
-0.033370641
0.14159885
-0.036736344
0.1410814
-0.040058732
0.140832
-0.043271627
0.14086553
-0.046302132
0.14119471
-0.049073074
0.14182842
-0.051507061
0.14277029
-0.053531022
0.14401807
-0.055080426
0.14556393
-0.056102413
0.14739563
-0.056556916
0.14949825
-0.056415233
0.15185551
-0.055656626
0.15444965
-0.054265077
0.15725935
-0.052229673
0.16025576
-0.049551678
0.16339817
-0.046258849
0.16663138
-0.042423205
0.16988718
-0.038173916
0.173091
-0.033695279
0.17617235
-0.029203949
0.17907537
-0.024909875
0.18176539
-0.020976422
0.1842295
-0.017497527
0.1864726
-0.014499823
0.18851165
-0.01196257
0.19037057
-0.0098405295
0.19207632
-0.0080793329
0.19365603
-0.0066226885
0.1951349
-0.005416094
0.19653492
-0.0044101913
0.19787459
-0.0035635357
0.19916922
-0.0028434645
0.20043151
-0.002225066
0.20167213
-0.0016893477
0.20290014
-0.001221609
0.20412335
-0.0008101679
0.2053486
-0.00044608135
0.20658182
-0.00012111877
0.2078288
0.00016786283
0.20909347
0.00043418854
0.21038413
0.00065060676
0.00095912359
0.16219824
-0.0095550713
0.15920095
-0.011966302
0.15622478
-0.014712245
0.15347911
-0.017751717
0.15095476
-0.021013804
0.14864774
-0.024423314
0.14656711
-0.027939131
0.14472272
-0.031526257
0.14312634
-0.035139958
0.14179248
-0.038724873
0.1407374
-0.042216548
0.13997798
-0.045542715
0.13953041
-0.048625501
0.1394083
-0.05138495
0.13962081
-0.053743537
0.14017134
-0.055630952
0.14105713
-0.056988207
0.14227013
-0.057769917
0.14379872
-0.057943819
0.14562962
-0.057487525
0.14774878
-0.056384237
0.15014012
-0.054621013
0.15278192
-0.052193477
0.15564183
-0.04911876
0.1586726
-0.045453973
0.16181118
-0.041312503
0.16498329
-0.036867388
0.16811298
-0.032333633
0.17113416
-0.027931062
0.17399949
-0.023841748
0.17668342
-0.020181461
0.17917997
-0.016996372
0.18149766
-0.014280262
0.18365442
-0.011997286
0.18567338
-0.010098294
0.1875796
-0.0085289101
0.18939746
-0.0072339531
0.19114895
-0.0061616804
0.19285296
-0.0052675397
0.19452533
-0.0045158375
0.19617937
-0.0038791063
0.19782634
-0.0033363135
0.1994759
-0.002871176
0.20113647
-0.0024707365
0.20281552
-0.0021251331
0.20451958
-0.0018251769
0.20625515
-0.0015677039
0.20802656
-0.0013372223
0.20984355
-0.0011663883
-0.00089307935
0.20932647
-0.0060083156
-0.21287323
0.20650027
-0.0091400976
0.20406412
-0.012276097
0.20186123
-0.015548831
0.1998358
-0.01898837
0.19794729
-0.022534807
0.19616494
-0.026156783
0.19446711
-0.029828424
0.19283843
-0.033511277
0.19126842
-0.03715486
0.1897512
-0.040699332
0.18828554
-0.044077051
0.18687471
-0.047214678
0.18552624
-0.050036475
0.18425122
-0.052468522
0.18306353
-0.054443257
0.18197881
-0.055903492
0.18101371
-0.056804816
0.18018524
-0.05711535
0.17951037
-0.056812654
0.17900553
-0.055879397
0.17868581
-0.054301286
0.17856355
-0.05207122
0.17864629
-0.049201502
0.17893394
-0.045741622
0.17941583
-0.041794392
0.18006879
-0.03752035
0.18085764
-0.033122482
0.18173861
-0.028812034
0.18266501
-0.024768142
0.18359328
-0.021109731
0.18448786
-0.017890949
0.1853237
-0.015116103
0.18608645
-0.012760039
0.18677079
-0.010782633
0.18737782
-0.0091359398
0.18791244
-0.0077685708
0.18838126
-0.0066305016
0.18879129
-0.0056775774
0.18914927
-0.0048738154
0.18946134
-0.0041911766
0.18973301
-0.0036079776
0.18996914
-0.0031073096
0.19017402
-0.002675613
0.19035147
-0.0023025885
0.19050466
-0.0019783692
0.19063712
-0.0017001638
0.19074977
-0.0014498683
0.19085069
-0.0012673047
-0.00096775782
0.23532738
-0.003473752
-0.23786194
0.23273781
-0.0065505256
0.23035655
-0.0098948404
0.22805477
-0.013247045
0.22577678
-0.016710386
0.22353161
-0.020289634
0.2213199
-0.023945074
0.21913388
-0.027642407
0.21696853
-0.031345925
0.21482271
-0.035009036
0.21269832
-0.038574944
0.21060083
-0.041979561
0.20853985
-0.045153701
0.20652913
-0.048025754
0.20458601
-0.050525401
0.20273058
-0.052587831
0.20098469
-0.054157604
0.19937097
-0.055191091
0.19791207
-0.05565645
0.19663019
-0.055530773
0.19554662
-0.054795829
0.19468115
-0.053435817
0.19405096
-0.051441028
0.19366871
-0.048819252
0.19353966
-0.045612573
0.19365813
-0.041912865
0.19400457
-0.037866787
0.19454489
-0.033662798
0.19523323
-0.029500379
0.19601774
-0.025552646
0.19684745
-0.021939446
0.19767836
-0.018721864
0.19847708
-0.015914821
0.19922179
-0.013504742
0.19990101
-0.011461855
0.20051116
-0.0097460891
0.20105378
-0.0083111892
0.20153322
-0.0071099427
0.20195504
-0.0060993973
0.20232505
-0.0052438282
0.20264885
-0.0045149789
0.20293162
-0.0038907426
0.20317804
-0.0033537286
0.2033923
-0.0028898772
0.2035782
-0.0024884916
0.20373896
-0.0021391289
0.20387802
-0.0018392219
0.20399668
-0.0015685269
0.20410234
-0.0013729622
-0.0010467109
0.25967011
-0.0014241163
-0.26171974
0.25749384
-0.0043742587
0.25526983
-0.0076708322
0.25301481
-0.010992023
0.25069108
-0.014386659
0.24830069
-0.017899244
0.24585679
-0.021501171
0.2433656
-0.025151222
0.24083225
-0.028812572
0.23826472
-0.032441508
0.23567376
-0.035983983
0.23307301
-0.03937881
0.23047968
-0.042560374
0.22791476
-0.045460825
0.22540255
-0.048013191
0.22296992
-0.050155201
0.22064524
-0.051832923
0.21845733
-0.053003188
0.21643462
-0.053633743
0.21460453
-0.053700677
0.21299307
-0.053184372
0.21162448
-0.052067226
0.21052039
-0.050336942
0.20969826
-0.047997116
0.20916851
-0.045082821
0.2089307
-0.041675057
0.20896975
-0.03790584
0.20925421
-0.033947256
0.20973813
-0.029984305
0.21036663
-0.02618114
0.21108327
-0.022656082
0.21183705
-0.019475645
0.21258708
-0.016664857
0.2133044
-0.014222062
0.2139713
-0.012128755
0.21457918
-0.010353969
0.21512585
-0.0088578546
0.21561304
-0.0075971369
0.21604458
-0.0065309388
0.21642516
-0.005624408
0.21675966
-0.0048494787
0.21705281
-0.0041838892
0.21730902
-0.0036099406
0.21753234
-0.0031132006
0.21772648
-0.0026826245
0.21789468
-0.002307331
0.21804022
-0.0019847626
0.21816493
-0.0016932427
0.218275
-0.0014830267
-0.0011301271
0.28225807
0.00017562619
-0.28385781
0.28050682
-0.0026230183
0.27854702
-0.0057110324
0.27644627
-0.0088912731
0.2742103
-0.012150682
0.27183636
-0.015525308
0.26933491
-0.018999722
0.26671801
-0.022534318
0.26399663
-0.026091197
0.26118418
-0.02962906
0.25829765
-0.033097443
0.25535742
-0.03643858
0.25238746
-0.039590416
0.24941538
-0.042488753
0.24647205
-0.045069857
0.24359072
-0.047273866
0.24080597
-0.049048177
0.2381526
-0.050349815
0.23566458
-0.051145728
0.23337441
-0.051410509
0.2313127
-0.051122658
0.22950789
-0.050262412
0.22798575
-0.048814802
0.22676808
-0.046779452
0.22587013
-0.044184871
0.22529664
-0.041101561
0.22503758
-0.037646782
0.22506558
-0.033975259
0.22533687
-0.030255593
0.22579621
-0.026640482
0.22638436
-0.02324423
0.22704551
-0.020136797
0.22773277
-0.017352114
0.22841077
-0.014900056
0.22905574
-0.012773727
0.22965389
-0.010952122
0.23019895
-0.0094029105
0.23068966
-0.0080878534
0.23112779
-0.0069690644
0.23151662
-0.0060132417
0.23186012
-0.0051929795
0.23216241
-0.0044861795
0.23242752
-0.0038750476
0.23265925
-0.0033449349
0.23286115
-0.0028845236
0.23303646
-0.0024826416
0.23318826
-0.0021365535
0.23331883
-0.0018238205
0.23343318
-0.0015973727
-0.0012178981
0.30311053
0.0013361373
-0.30427104
0.30176829
-0.0012807849
0.30015312
-0.0040958578
0.29831555
-0.0070537032
0.29628292
-0.010118049
0.2940569
-0.013299297
0.29164405
-0.016586865
0.28905747
-0.019947743
0.28631137
-0.023345099
0.28342193
-0.026739612
0.28040929
-0.030084808
0.27729789
-0.033327183
0.27411622
-0.036408742
0.27089665
-0.039269185
0.26767502
-0.041848226
0.26448972
-0.04408856
0.26138052
-0.045938987
0.25838739
-0.047356684
0.25554928
-0.048307613
0.25290332
-0.048764547
0.25048437
-0.04870371
0.24832483
-0.048102872
0.2464543
-0.04694427
0.24489856
-0.045223712
0.24367725
-0.042963562
0.24280007
-0.040224381
0.24226234
-0.037109052
0.24204183
-0.033754749
0.24209886
-0.03031263
0.24238047
-0.026922093
0.24282738
-0.023691139
0.24338151
-0.020690924
0.24399186
-0.017962468
0.24461787
-0.015526067
0.24523026
-0.013386118
0.24581011
-0.011531963
0.24634683
-0.0099396328
0.24683589
-0.0085769184
0.24727666
-0.0074098346
0.24767077
-0.0064073486
0.24802103
-0.0055432353
0.24833077
-0.0047959263
0.24860351
-0.0041477853
0.24884271
-0.0035841335
0.24905167
-0.0030934833
0.24923355
-0.0026645272
0.24939121
-0.002294205
0.24952731
-0.0019599242
0.24964573
-0.0017157931
-0.0013098134
0.32272272
0.0021051744
-0.32349176