/*--------------------------------*- C++ -*----------------------------------*\
  =========                 |
  \\      /  F ield         | OpenFOAM: The Open Source CFD Toolbox
   \\    /   O peration     | Website:  https://openfoam.org
    \\  /    A nd           | Version:  6
     \\/     M anipulation  |
\*---------------------------------------------------------------------------*/
FoamFile
{
    version     2.0;
    format      ascii;
    class       volScalarField;
    location    "10";
    object      pPrime2Mean;
}
// * * * * * * * * * * * * * * * * * * * * * * * * * * * * * * * * * * * * * //

dimensions      [0 4 -4 0 0 0 0];

internalField   nonuniform List<scalar> 
9200
(
1.083564
0.89521415
0.73601316
0.63289671
0.55107553
0.48250251
0.42361551
0.37261588
0.32830557
0.28971357
0.25602664
0.22655664
0.20071848
0.17801458
0.15802336
0.14039079
0.12482479
0.11109042
0.099037394
0.088466051
0.86779509
0.71446742
0.58654609
0.50308012
0.43668903
0.38103166
0.33328801
0.292029
0.2562841
0.22525633
0.19827052
0.1747504
0.15420363
0.1362111
0.12041853
0.10652946
0.094299297
0.083528224
0.074049237
0.065610346
0.66574858
0.5459928
0.44737405
0.38239305
0.33051497
0.28700121
0.24973293
0.21762693
0.18992639
0.16599607
0.14528827
0.12732999
0.11171499
0.098097656
0.086187152
0.075741359
0.066560742
0.05848008
0.051341015
0.044920501
0.48315175
0.39445941
0.32229442
0.2741166
0.23544531
0.20298559
0.17525574
0.15148361
0.13110416
0.11362602
0.098615066
0.085691754
0.074529526
0.064852276
0.056430203
0.049074206
0.042629583
0.036967756
0.031961113
0.027448242
0.32517833
0.26407433
0.2148049
0.18129687
0.15418004
0.13139938
0.11202593
0.095554046
0.081582354
0.069741862
0.059696673
0.051150318
0.043849136
0.037581924
0.032176452
0.027493981
0.023423131
0.019872728
0.016754094
0.013967857
0.19637858
0.15850314
0.12800737
0.1066534
0.08913837
0.074410755
0.061992629
0.051592384
0.042939761
0.035764969
0.029814418
0.024863887
0.020724705
0.017244022
0.014301178
0.011802192
0.0096740393
0.007858895
0.006303643
0.0049563861
0.10053033
0.08076719
0.064522796
0.052501231
0.042385623
0.033871466
0.026817458
0.021088466
0.016510787
0.012890436
0.010040055
0.0077958215
0.0060241318
0.0046212468
0.003509134
0.0026300273
0.0019413113
0.0014111588
0.0010134791
0.00072748966
0.040527565
0.033166069
0.026422892
0.020685833
0.015570876
0.011257566
0.0078193514
0.005218315
0.0033428647
0.0020518617
0.0012075617
0.00069292419
0.00041696054
0.0003131021
0.00033456822
0.00044925068
0.00063537
0.00087836375
0.0011692184
0.0015042269
0.018296803
0.01721996
0.015160942
0.012512737
0.0098643196
0.0076164964
0.0059308543
0.0048083712
0.0041671999
0.0038973342
0.0038935161
0.0040700051
0.0043635468
0.0047305573
0.0051424105
0.0055809405
0.0060349421
0.0064980074
0.0069682737
0.0074476267
0.034692723
0.033593942
0.031450678
0.028626274
0.025844146
0.023462347
0.021603563
0.020253372
0.019330145
0.018733901
0.018373318
0.018176246
0.018090251
0.018079036
0.018118185
0.018191431
0.018287911
0.018400486
0.018525165
0.018659765
2.6554032
2.2322464
1.8442918
1.5992484
1.4049036
1.2419663
1.1017847
0.97968916
0.87279167
0.7788216
0.69592436
0.62256668
0.55746703
0.49954541
0.44788606
0.40170893
0.3603474
0.32320939
0.28974335
0.25964217
2.6207562
2.2009315
1.8175125
1.5753435
1.3834876
1.2226781
1.0843402
0.96388325
0.85845384
0.76580434
0.68409845
0.61181807
0.54769456
0.49065893
0.43980487
0.39436068
0.35366757
0.31714122
0.28422592
0.25461993
2.5501262
2.1389281
1.7652899
1.5292639
1.3424989
1.1859985
1.0513742
0.93418245
0.83164784
0.74157863
0.66218255
0.59197707
0.52972282
0.47437525
0.42504871
0.38098925
0.34155423
0.30617499
0.27429795
0.24562194
2.4447561
2.0477361
1.689118
1.4624227
1.2832158
1.1330837
1.0039427
0.89155711
0.79326734
0.70696846
0.63093684
0.56374506
0.50419872
0.45129051
0.40416592
0.36209727
0.32446504
0.29072316
0.26033055
0.2329849
2.3075282
1.9299352
1.5911869
1.3767768
1.2073937
1.0655162
0.94348268
0.83731778
0.74451169
0.66307357
0.59137071
0.52804873
0.47197274
0.42218442
0.3778699
0.33833537
0.30299007
0.27131608
0.24279845
0.21713787
2.1423652
1.7889484
1.4743444
1.2748333
1.1172664
0.98529885
0.87179821
0.77309558
0.68685967
0.61123738
0.5447062
0.48600057
0.43405803
0.38797979
0.34700119
0.31046896
0.27782562
0.2485847
0.22227037
0.19859728
1.954031
1.6288842
1.3419656
1.1595363
1.0154438
0.89476173
0.7909788
0.70076932
0.62200462
0.55298882
0.49232567
0.43885183
0.39158844
0.3497057
0.31249596
0.27935283
0.24975633
0.22325282
0.19941455
0.17798343
1.7479533
1.4543892
1.1978436
1.0341738
0.90482781
0.79648588
0.70332977
0.62240342
0.55179915
0.48999339
0.43572865
0.38795442
0.34578469
0.30846678
0.27535749
0.2459041
0.21962998
0.19611758
0.17499398
0.1560367
1.530031
1.2704853
1.046068
0.90227981
0.78853172
0.69323764
0.61131838
0.54020273
0.47821652
0.42401891
0.37649985
0.33472921
0.29792066
0.26540527
0.23661112
0.21104694
0.18828875
0.16796557
0.14977397
0.13352076
1.3064191
1.0824347
0.89089364
0.76749944
0.66975273
0.58785082
0.51746782
0.45641953
0.40327081
0.3568683
0.3162534
0.28061997
0.24928496
0.22166736
0.19727208
0.17567754
0.15652678
0.1395227
0.12446486
0.11116221
0.22774672
0.19575499
0.16847163
0.14472369
0.12440664
0.10701852
0.092129095
0.079360936
0.068395313
0.058964173
0.050841789
0.04383789
0.037791234
0.032564429
0.028040222
0.024118785
0.020715535
0.017759213
0.015190038
0.012957898
0.011020589
0.0093422158
0.0078917988
0.0066421727
0.0055691818
0.0046511514
0.0038685706
0.003203909
0.0026414956
0.0021674077
0.0017693491
0.0014365122
0.0011594354
0.00092985927
0.00074059515
0.00058540082
0.00045887377
0.00035635047
0.00027382311
0.00020785883
0.00015553464
0.00011437339
8.2290633e-05
5.7547537e-05
3.8708282e-05
2.4608606e-05
1.4315436e-05
7.1335097e-06
2.5395101e-06
2.9171124e-07
0.2236506
0.19269661
0.16617433
0.14301203
0.12315857
0.10612895
0.091506085
0.078929212
0.068096728
0.058755698
0.050693113
0.043728702
0.037708457
0.032499884
0.027988877
0.024077528
0.020682363
0.017732727
0.015169149
0.012941672
0.011008186
0.0093328718
0.0078848359
0.0066370124
0.0055653519
0.004648284
0.0038663912
0.0032022202
0.002640159
0.0021663282
0.0017684618
0.0014357729
0.0011588135
0.0009293333
0.00074014969
0.00058502432
0.00045855718
0.00035608636
0.00027360514
0.00020768141
0.00015539262
0.00011426204
8.2205546e-05
5.7484682e-05
3.8663896e-05
2.4579177e-05
1.4297735e-05
7.1244529e-06
2.5362128e-06
2.9130849e-07
0.21637891
0.18732113
0.16219146
0.14011189
0.12110078
0.10471067
0.09055298
0.078300735
0.067686678
0.058487632
0.050514711
0.043605968
0.037620308
0.03243377
0.027937597
0.024037046
0.020650385
0.017707819
0.015150243
0.012927818
0.010998462
0.0093263818
0.007880748
0.0066346022
0.0055640316
0.0046476115
0.0038660586
0.00320203
0.002639997
0.0021661368
0.0017682198
0.0014354801
0.0011584807
0.00092897586
0.00073978365
0.00058466425
0.00045821507
0.00035577127
0.00027332323
0.00020743621
0.00015518531
0.000114092
8.2070686e-05
5.7381943e-05
3.8589492e-05
2.4528848e-05
1.4266964e-05
7.1085327e-06
2.5303743e-06
2.9058732e-07
0.20618227
0.17979721
0.15667061
0.13616732
0.11835941
0.10286066
0.089336496
0.077516358
0.067186885
0.058169616
0.050309814
0.043470208
0.037526609
0.032366089
0.027886787
0.023998063
0.020620464
0.017685335
0.01513405
0.012916908
0.010991838
0.0093230435
0.0078797444
0.0066350939
0.0055653386
0.0046492308
0.0038676556
0.0032034107
0.0026410716
0.0021668859
0.0017686662
0.0014356685
0.0011584643
0.000928808
0.00073951285
0.00058433224
0.00045785575
0.000355411
0.00027298126
0.00020712575
0.00015491425
0.00011386415
8.1886486e-05
5.7239497e-05
3.8485074e-05
2.4457533e-05
1.4223013e-05
7.0856393e-06
2.5219309e-06
2.8953784e-07
0.19337295
0.17034552
0.14980401
0.13135383
0.11507773
0.10067786
0.087913957
0.076602488
0.066604557
0.05779926
0.050072856
0.04331613
0.037423711
0.032295025
0.027836115
0.023961223
0.020593749
0.017666575
0.015121798
0.012909991
0.010989151
0.0093235016
0.0078823159
0.0066388657
0.005569571
0.0046533832
0.0038713812
0.0032065267
0.0026435183
0.0021686857
0.0017698892
0.0014364077
0.0011588181
0.00092887031
0.00073936744
0.00058405022
0.00045749485
0.00035501638
0.00027258655
0.00020675477
0.0001545824
0.00011358016
8.1653811e-05
5.7057675e-05
3.8350702e-05
2.436516e-05
1.4165782e-05
7.0557101e-06
2.5108639e-06
2.8815537e-07
0.1783163
0.15923757
0.14182151
0.1258517
0.1113749
0.09822108
0.0862995
0.075549008
0.065920982
0.057358168
0.049789653
0.04313466
0.03730705
0.032219393
0.027786613
0.023928797
0.020573027
0.017654359
0.015116059
0.012909258
0.010992184
0.0093291633
0.007889556
0.0066467636
0.0055773861
0.0046605838
0.0038776417
0.0032116995
0.0026475908
0.002171735
0.0017720433
0.0014378158
0.0011596312
0.00092922924
0.00073939604
0.00058385312
0.00045715697
0.00035460434
0.00027215043
0.00020633062
0.00015419427
0.0001132427
8.1374068e-05
5.6837131e-05
3.8186543e-05
2.4251656e-05
1.4095106e-05
7.0185718e-06
2.4970756e-06
2.8642594e-07
0.1614604
0.14681782
0.13298318
0.11980209
0.10728666
0.095461164
0.084438214
0.074301708
0.065094759
0.056819777
0.049446057
0.042920654
0.037177404
0.032143485
0.027744362
0.023907491
0.020564886
0.017654718
0.01512209
0.012919123
0.011004538
0.0093428978
0.007903713
0.00666053
0.0055901251
0.0046718604
0.0038872228
0.0032195283
0.0026537441
0.0021763775
0.0017753858
0.0014400841
0.0011610444
0.00092998694
0.00073967185
0.00058379259
0.00045687791
0.00035419919
0.00027168901
0.00020586362
0.00015375626
0.00011285546
8.1049217e-05
5.6578718e-05
3.7992862e-05
2.4116983e-05
1.4010852e-05
6.9741229e-06
2.4805286e-06
2.8434063e-07
0.14338085
0.13351063
0.12351165
0.11320005
0.10267867
0.092240568
0.082202688
0.072775919
0.064078569
0.056163543
0.049038406
0.042680087
0.037045662
0.032080177
0.027722483
0.023909686
0.020580453
0.017677313
0.015148049
0.01294632
0.011031658
0.0093690373
0.0079281822
0.0066827945
0.0056098064
0.0046887512
0.0039012893
0.0032308896
0.0026626338
0.0021831003
0.0017802763
0.0014434758
0.0011632483
0.00093128005
0.00074029159
0.00058393612
0.00045670397
0.00035383209
0.00027122274
0.00020536682
0.00015327634
0.00011242307
8.0681737e-05
5.6283609e-05
3.7770034e-05
2.3961107e-05
1.3912821e-05
6.9221386e-06
2.4610936e-06
2.818816e-07
0.12464705
0.11953762
0.11319193
0.10554874
0.097028117
0.088141915
0.079299005
0.070776073
0.062746646
0.05531172
0.048521497
0.04238941
0.036902294
0.032028592
0.027724992
0.023941729
0.020626754
0.01772886
0.015199838
0.012995745
0.011077451
0.0094106113
0.0079652795
0.0067153234
0.0056377894
0.0047123206
0.0039206897
0.0032464677
0.0026748137
0.0021923487
0.0017870684
0.0014482669
0.0011664548
0.00093326821
0.00074137322
0.0005843691
0.0004566957
0.00035354497
0.00027077998
0.00020485881
0.0001527663
0.00011195268
8.0275704e-05
5.5953904e-05
3.7519008e-05
2.3784345e-05
1.3801044e-05
6.8625818e-06
2.4387547e-06
2.7904239e-07
0.10598825
0.10454466
0.10107521
0.095940567
0.089656918
0.0826809
0.075377752
0.068047275
0.060913964
0.054133475
0.047806916
0.041992593
0.036715019
0.031973028
0.027747061
0.024005342
0.020708956
0.017815895
0.015284078
0.013073417
0.011147033
0.0094717889
0.0080183151
0.0067607151
0.005676117
0.0047441925
0.0039467342
0.0032673328
0.0026911615
0.0022048393
0.0017963401
0.0014549166
0.001171022
0.00093622529
0.00074312198
0.00058524221
0.00045696132
0.00035341379
0.00027041267
0.00020437409
0.00015224829
0.00011145788
7.9839033e-05
5.5593839e-05
3.72418e-05
2.358741e-05
1.3675617e-05
6.7953122e-06
2.4133681e-06
2.7581027e-07
0.085476394
0.086304203
0.085101724
0.082268744
0.07825928
0.073381
0.067910995
0.062125209
0.056261693
0.050505059
0.044991137
0.039813793
0.035030772
0.030670168
0.026737159
0.023220229
0.020096617
0.017336875
0.014908491
0.012778542
0.010915456
0.0092900103
0.0078757416
0.0066489536
0.0055884855
0.0046753816
0.0038925576
0.0032245264
0.002657207
0.0021778074
0.0017747547
0.0014376446
0.0011571876
0.00092514642
0.00073426245
0.00057817717
0.00045135119
0.00034898518
0.00026694381
0.00020168419
0.0001501891
0.00010990742
7.8696643e-05
5.4776198e-05
3.6679717e-05
2.3223069e-05
1.3460408e-05
6.6870978e-06
2.3752372e-06
2.718133e-07
0.066108475
0.067957041
0.068123644
0.066929654
0.064672645
0.061559198
0.057782813
0.0535616
0.049101342
0.044573749
0.040115448
0.035830173
0.031790926
0.028043671
0.024612109
0.02150258
0.01870866
0.016215259
0.014002062
0.01204622
0.010324296
0.0088135264
0.0074925336
0.0063416196
0.0053427909
0.0044796346
0.003737143
0.0031015508
0.0025602177
0.0021015587
0.0017150068
0.0013909878
0.0011208908
0.00089702807
0.00071258393
0.00056155512
0.00043868675
0.00033940706
0.00025976252
0.0001963554
0.0001462844
0.0001070906
7.670501e-05
5.340503e-05
3.5770157e-05
2.2651623e-05
1.3131397e-05
6.5242464e-06
2.317817e-06
2.6512148e-07
0.049452222
0.051930393
0.053074889
0.053126978
0.052236432
0.050538008
0.048167031
0.045287172
0.042065688
0.038652653
0.035175701
0.03173884
0.028421932
0.025281932
0.022355674
0.019663294
0.017211793
0.014998451
0.013013888
0.011244603
0.009674945
0.0082885101
0.0070690538
0.0060010026
0.0050696872
0.004261397
0.0035633474
0.0029636218
0.0024511266
0.0020155719
0.0016474702
0.0013381404
0.0010797048
0.00086507349
0.00068791562
0.00054261952
0.00042424579
0.00032847631
0.00025156114
0.00019026579
0.00014181968
0.00010386818
7.4425565e-05
5.1835103e-05
3.4728397e-05
2.1996965e-05
1.2754426e-05
6.3376508e-06
2.2521155e-06
2.5744143e-07
0.035418887
0.038214808
0.039982712
0.040899025
0.041012335
0.040402088
0.039159083
0.037397679
0.035243891
0.032820135
0.030237663
0.027592917
0.024965227
0.022416159
0.019990469
0.01771802
0.015616199
0.013692491
0.011946983
0.010374594
0.008966916
0.0077136352
0.0066035415
0.0056251907
0.0047672968
0.0040189357
0.0033696366
0.0028094201
0.0023288221
0.0019189237
0.001571386
0.001278484
0.0010331299
0.00082888236
0.00065993963
0.00052112032
0.00040783359
0.00031604296
0.00024222558
0.00018332973
0.00013673167
0.00010019424
7.182576e-05
5.0043958e-05
3.3539547e-05
2.1249695e-05
1.2324038e-05
6.1245816e-06
2.1770567e-06
2.4866624e-07
0.024106528
0.026889203
0.028941485
0.030367421
0.031148297
0.031317795
0.03092921
0.03005499
0.028781983
0.027202456
0.025406558
0.023477358
0.02148753
0.019497459
0.017554734
0.015694725
0.013941855
0.012311281
0.010810727
0.0094422676
0.0082039203
0.0070909584
0.006096927
0.0052143761
0.0044353556
0.00375173
0.0031553704
0.0026382755
0.0021926589
0.0018110239
0.0014862332
0.0012115705
0.00098078848
0.00078814155
0.00062840025
0.00049685155
0.00038928642
0.00030197859
0.00023165651
0.00017547153
0.00013096362
9.602707e-05
6.8875608e-05
4.8010711e-05
3.2189583e-05
2.0401006e-05
1.1835146e-05
5.8826001e-06
2.0918008e-06
2.3872242e-07
0.015427391
0.017925612
0.019968033
0.021593979
0.022743069
0.023411399
0.023619292
0.023404388
0.022819165
0.021926406
0.02079315
0.019485567
0.018065266
0.016586744
0.015095913
0.013629611
0.012215885
0.010874811
0.0096196269
0.0084579984
0.0073932599
0.006425526
0.0055526173
0.0047707853
0.0040752494
0.0034605755
0.0029209393
0.00245031
0.0020425896
0.0016917268
0.0013918171
0.0011371888
0.00092247397
0.0007426611
0.00059313
0.00046967023
0.00036848539
0.00028618653
0.00021977693
0.00016663106
0.00012446956
9.1332297e-05
6.5550067e-05
4.5717649e-05
3.0666511e-05
1.9443164e-05
1.1283191e-05
5.6093668e-06
1.9954294e-06
2.2750518e-07
0.0091188801
0.011159943
0.012974589
0.014556431
0.015824759
0.016748771
0.017321867
0.017553751
0.017468463
0.017102297
0.016499582
0.01570823
0.014776197
0.013748766
0.012666573
0.011564422
0.010470804
0.0094079777
0.0083924594
0.007435753
0.0065451912
0.0057247735
0.004975928
0.0042981573
0.0036895545
0.0031472005
0.0026674604
0.0022462076
0.0018789984
0.0015612153
0.0012881909
0.0010553138
0.0008581178
0.00069235258
0.00055403564
0.00043948729
0.00034535046
0.00026859794
0.00020652964
0.0001567622
0.00011721329
8.6082266e-05
6.1828627e-05
4.3150116e-05
2.896028e-05
1.836976e-05
1.0664425e-05
5.3030817e-06
1.8873235e-06
2.1497088e-07
0.0048258905
0.0063336304
0.0077880895
0.0091571493
0.010356349
0.011339884
0.012082537
0.012573478
0.012814857
0.012821043
0.012616026
0.01223004
0.011696571
0.011049841
0.010322755
0.0095453679
0.0087439139
0.0079403473
0.0071522888
0.006393274
0.0056731929
0.004998823
0.0043743762
0.0038020097
0.0032822701
0.002814461
0.0023969381
0.0020273458
0.0017028075
0.0014200867
0.0011757248
0.00096616043
0.00078783233
0.0006372629
0.0005111244
0.00040628777
0.00031985588
0.00024918346
0.0001918859
0.00014583913
0.00010917295
8.0259345e-05
5.7697653e-05
4.0298017e-05
2.7063783e-05
1.7176071e-05
9.9759828e-06
4.9622363e-06
1.7668654e-06
2.0104582e-07
0.0021685459
0.0031417415
0.0041790839
0.0052383743
0.0062424838
0.0071411286
0.0078993855
0.0084935953
0.0089108044
0.0091488922
0.0092152562
0.0091245891
0.0088966427
0.0085541845
0.0081211483
0.0076210764
0.0070759346
0.006505323
0.0059260379
0.0053519345
0.0047940112
0.0042606437
0.0037578997
0.0032898814
0.0028590573
0.0024665634
0.0021124625
0.0017959659
0.0015156205
0.001269471
0.0010552016
0.00087026109
0.00071197189
0.00057762205
0.0004645411
0.00037015931
0.00029205189
0.00022796958
0.0001758577
0.00013386545
0.00010034769
7.3860676e-05
5.3153738e-05
3.7158176e-05
2.4974453e-05
1.5860278e-05
9.2167266e-06
4.5862851e-06
1.6338707e-06
1.8573494e-07
0.00078604341
0.0012725023
0.0018926396
0.0026042686
0.003343591
0.0040634392
0.004726818
0.0053043089
0.0057743099
0.0061238266
0.0063481293
0.006449547
0.0064360444
0.0063197711
0.0061156142
0.0058398397
0.0055089301
0.0051386719
0.0047435094
0.0043361432
0.0039273437
0.0035259294
0.0031388622
0.0027714131
0.0024273616
0.0021092037
0.0018183499
0.0015553071
0.0013198438
0.0011111373
0.00092790838
0.0007685421
0.00063119593
0.00051389436
0.00041460901
0.0003313244
0.00026208975
0.00020505782
0.00015851223
0.00012088498
9.0765601e-05
6.6903919e-05
4.8207729e-05
3.3737063e-05
2.2696e-05
1.4424371e-05
8.3876238e-06
4.1756028e-06
1.4884042e-06
1.6903882e-07
0.00036073148
0.00043421193
0.00067397681
0.001043131
0.0014932284
0.00198459
0.0024834786
0.0029602776
0.0033902159
0.0037545775
0.0040410217
0.0042431672
0.0043598902
0.0043944779
0.004353659
0.0042465827
0.0040838432
0.0038766222
0.0036359887
0.0033723731
0.0030952086
0.0028127253
0.0025318645
0.0022582854
0.0019964318
0.0017496352
0.001520236
0.0013097089
0.0011187887
0.00094759019
0.00079572289
0.00066239903
0.00054653305
0.00044683172
0.00036187335
0.00029017526
0.00023024938
0.00018064629
0.00013998853
0.00010699432
8.049309e-05
5.9434107e-05
4.2889664e-05
3.0054263e-05
2.0240804e-05
1.2875818e-05
7.4928449e-06
3.7322271e-06
1.3311954e-06
1.5105803e-07
0.00062722914
0.00037014559
0.00028617708
0.00034560167
0.00051465386
0.0007628181
0.0010625328
0.0013876455
0.0017142748
0.0020221669
0.0022953839
0.0025224137
0.002696017
0.0028128965
0.0028731889
0.0028798242
0.002837829
0.0027536402
0.002634481
0.0024878263
0.0023209807
0.0021407669
0.0019533205
0.0017639716
0.0015771987
0.0013966322
0.0012250949
0.0010646627
0.00091674037
0.00078214416
0.00066118718
0.00055376562
0.00045944251
0.00037752687
0.00030714622
0.0002473109
0.00019696928
0.00015505347
0.00012051589
9.2357008e-05
6.9645477e-05
5.1531444e-05
3.7254336e-05
2.6146319e-05
1.7632414e-05
1.1229018e-05
6.5404835e-06
3.2600519e-06
1.1635757e-06
1.3193449e-07
0.0013722031
0.00086444249
0.00052043302
0.00031750993
0.00023441072
0.00024959758
0.00034264327
0.00049272361
0.00067937086
0.00088375229
0.0010894762
0.0012829798
0.0014537223
0.0015942274
0.0016999495
0.0017689825
0.0018016596
0.0018000956
0.001767716
0.0017088081
0.0016281207
0.0015305299
0.0014207762
0.001303273
0.0011819775
0.0010603167
0.00094115319
0.00082678539
0.0007189694
0.00061895864
0.00052755458
0.00044516474
0.00037186459
0.00030746003
0.00025154798
0.00020357265
0.00016287616
0.00012874231
0.00010043319
7.7218574e-05
5.8398532e-05
4.3319935e-05
3.1387614e-05
2.2071227e-05
1.4908659e-05
9.5073921e-06
5.5438846e-06
2.7656243e-06
9.8787744e-07
1.1193998e-07
0.0024292758
0.0017420266
0.0012003072
0.00078746395
0.00049198246
0.00030006997
0.00019807987
0.00017097998
0.00020288461
0.00027811894
0.00038196782
0.00050114546
0.00062415126
0.00074152786
0.00084598209
0.00093236254
0.00099751816
0.0010400691
0.0010601205
0.001058949
0.0010386879
0.0010020331
0.0009519842
0.00089162906
0.00082397434
0.00075181953
0.00067767115
0.00060368972
0.00053166524
0.00046301412
0.00039879366
0.00033972914
0.00028625002
0.00023853169
0.00019653976
0.00016007422
0.00012881153
0.00010234281
8.0207464e-05
6.192141e-05
4.7000075e-05
3.4976181e-05
2.54129e-05
1.7913003e-05
1.2124701e-05
7.7452657e-06
4.5226549e-06
2.2585493e-06
8.0747981e-07
9.1447245e-08
0.0036719016
0.0028650372
0.0021817455
0.0016100779
0.001145552
0.00078047225
0.00050691006
0.0003151778
0.00019412697
0.0001319508
0.00011678267
0.0001371211
0.00018220943
0.00024237492
0.00030928231
0.0003760814
0.00043745368
0.00048957146
0.00052998525
0.00055745784
0.00057176542
0.00057348485
0.00056378367
0.00054422525
0.00051659733
0.00048276862
0.00044457411
0.00040372912
0.00036176853
0.00032000926
0.00027953159
0.0002411766
0.00020555599
0.00017307118
0.00014393888
0.00011822005
9.5850277e-05
7.6669418e-05
6.0449176e-05
4.6917676e-05
3.5780443e-05
2.6737599e-05
1.9497371e-05
1.3786257e-05
9.3562675e-06
5.9900334e-06
3.5040222e-06
1.7522527e-06
6.2716499e-07
7.099693e-08
0.0050059412
0.0041276426
0.0033504969
0.0026660461
0.0020744956
0.0015725955
0.0011568195
0.00082190511
0.0005609598
0.00036601628
0.00022845481
0.00013932163
8.9649329e-05
7.0781462e-05
7.4659966e-05
9.4049443e-05
0.00012269236
0.00015539577
0.00018805288
0.00021760693
0.0002419686
0.00025989997
0.00027087865
0.00027495391
0.00027260521
0.00026461052
0.0002519298
0.00023560623
0.00021668682
0.00019616142
0.00017491976
0.00015372396
0.00013319493
0.00011380975
9.5908023e-05
7.9704482e-05
6.5305683e-05
5.2728806e-05
4.1920962e-05
3.2777719e-05
2.5159984e-05
1.890867e-05
1.3856922e-05
9.8398913e-06
6.7022442e-06
4.3038401e-06
2.5237883e-06
1.2644161e-06
4.5320748e-07
5.1289421e-08
0.0063628682
0.0054504788
0.0046182529
0.003860238
0.0031794792
0.0025757369
0.0020486084
0.0015961903
0.0012150525
0.00090059288
0.00064729956
0.00044895028
0.00029883831
0.00019002992
0.00011562043
6.896383e-05
4.3866621e-05
3.4739209e-05
3.6700832e-05
4.5636764e-05
5.8210774e-05
7.1838897e-05
8.4632467e-05
9.5319123e-05
0.00010315053
0.00010780454
0.00010928845
0.00010784836
0.00010388806
9.7899887e-05
9.0408185e-05
8.1925847e-05
7.2922802e-05
6.3805767e-05
5.4907335e-05
4.6482888e-05
3.8713375e-05
3.1712274e-05
2.5535166e-05
2.0190573e-05
1.5651001e-05
1.1863413e-05
8.7586032e-06
6.2592217e-06
4.2863542e-06
2.7647995e-06
1.627138e-06
8.1743557e-07
2.9359654e-07
3.3223267e-08
0.0076939831
0.0067754232
0.0059184099
0.0051187629
0.0043810108
0.0037067877
0.0030977226
0.0025542622
0.0020755678
0.0016597242
0.0013038783
0.0010043352
0.00075668787
0.00055599105
0.00039695283
0.00027412622
0.00018209132
0.00011561956
6.9813247e-05
4.0214173e-05
2.2878646e-05
1.4419131e-05
1.2014927e-05
1.3396129e-05
1.6806223e-05
2.0949184e-05
2.4926893e-05
2.8172049e-05
3.038122e-05
3.1451332e-05
3.1422461e-05
3.0428283e-05
2.8655295e-05
2.6310712e-05
2.3598869e-05
2.0705115e-05
1.7786228e-05
1.4966006e-05
1.2334884e-05
9.9523233e-06
7.8509594e-06
6.0416468e-06
4.5187383e-06
3.2651431e-06
2.2568679e-06
1.4669402e-06
8.6864769e-07
4.3843317e-07
1.5800504e-07
1.7883877e-08
0.0089656997
0.0080610286
0.007201995
0.0063856778
0.0056171539
0.0048990941
0.0042343074
0.0036247403
0.0030713406
0.0025741695
0.0021324547
0.0017446116
0.0014082948
0.0011204925
0.00087764819
0.00067579454
0.00051069621
0.00037799215
0.00027333222
0.00019249982
0.0001315158
8.671976e-05
5.482745e-05
3.2964288e-05
1.8676762e-05
9.9246397e-06
5.05762e-06
2.78048e-06
2.110662e-06
2.3320002e-06
2.9477706e-06
3.6356469e-06
4.2064399e-06
4.5679506e-06
4.6945396e-06
4.6026724e-06
4.3320868e-06
3.9321301e-06
3.4524762e-06
2.9374385e-06
2.4230402e-06
1.9360821e-06
1.4945559e-06
1.1088587e-06
7.8340823e-07
5.1837219e-07
3.1132809e-07
1.5882366e-07
5.7672856e-08
6.5356313e-09
0.010155794
0.0092787026
0.0084340225
0.0076197495
0.0068409068
0.006100623
0.005402269
0.0047486337
0.0041417828
0.0035831116
0.0030733477
0.0026125236
0.002199975
0.0018343725
0.0015137817
0.0012357399
0.00099734917
0.0007953798
0.00062638089
0.00048679023
0.00037303906
0.00028164631
0.00020929906
0.00015291642
0.00010969596
7.7142562e-05
5.3081e-05
3.5654184e-05
2.3309618e-05
1.477688e-05
9.0389189e-06
5.2999076e-06
2.9518625e-06
1.5420618e-06
7.4260418e-07
3.2318203e-07
1.2757427e-07
5.4071243e-08
3.9715085e-08
4.8052169e-08
5.9950595e-08
6.6977267e-08
6.6823301e-08
6.0301764e-08
4.9498748e-08
3.6733607e-08
2.4054185e-08
1.3066356e-08
4.9503225e-09
5.6791767e-10
0.011250463
0.010409588
0.0095903663
0.0087914898
0.0080175701
0.0072718189
0.0065577509
0.0058785238
0.0052368093
0.0046348122
0.0040742461
0.0035562834
0.0030815202
0.002649967
0.0022610622
0.0019137015
0.001606284
0.0013367743
0.0011027768
0.00090161785
0.00073043341
0.00058625515
0.00046609345
0.00036701215
0.00028619325
0.00022098899
0.00016896109
0.00012790651
9.5871004e-05
7.1151412e-05
5.2288815e-05
3.8054348e-05
2.7429839e-05
1.9585182e-05
1.3854215e-05
9.7105386e-06
6.7444618e-06
4.641773e-06
3.1649335e-06
2.1368166e-06
1.4271002e-06
9.411138e-07
6.1091569e-07
3.88312e-07
2.3949813e-07
1.410401e-07
7.6906931e-08
3.6375785e-08
1.2500032e-08
1.4066324e-09
0.012242001
0.01144204
0.010655137
0.0098805451
0.0091222772
0.0083834047
0.0076673245
0.0069772466
0.0063160834
0.0056864516
0.005090639
0.0045305459
0.0040076353
0.0035229005
0.003076848
0.0026694931
0.0023003702
0.001968557
0.0016727137
0.0014111333
0.0011818022
0.00098246699
0.00081070436
0.00066399138
0.00053977273
0.00043552188
0.00034879462
0.00027727307
0.00021879966
0.00017140074
0.00013330052
0.00010292613
7.8905132e-05
6.0057053e-05
4.5380266e-05
3.4035961e-05
2.5330317e-05
1.8696225e-05
1.3675269e-05
9.9008014e-06
7.082497e-06
4.992629e-06
3.4542023e-06
2.3308789e-06
1.5186458e-06
9.3904873e-07
5.3384864e-07
2.6108678e-07
9.1997148e-08
1.0367178e-08
0.013126979
0.012369593
0.011618505
0.010873451
0.01013777
0.0094142755
0.0087061015
0.0080163153
0.0073478285
0.0067033918
0.0060855599
0.0054966361
0.0049386196
0.0044131627
0.0039215377
0.0034646119
0.0030428327
0.0026562248
0.0023043994
0.0019865751
0.0017016112
0.0014480491
0.0012241624
0.0010280121
0.0008575048
0.00071045054
0.00058461917
0.00047779171
0.00038780596
0.00031259455
0.00025021514
0.00019887231
0.00015693166
0.0001229266
9.5558887e-05
7.369401e-05
5.6352524e-05
4.2698582e-05
3.2026632e-05
2.3747303e-05
1.7373154e-05
1.2504944e-05
8.8187822e-06
6.054513e-06
4.0054262e-06
2.5095498e-06
1.4423592e-06
7.1147405e-07
2.5227467e-07
2.8445395e-08
0.013904747
0.013189275
0.012474865
0.011761686
0.011052403
0.010349523
0.0096558536
0.0089742142
0.0083073718
0.0076580305
0.0070288012
0.0064221542
0.005840369
0.0052854919
0.0047592956
0.004263245
0.0037984676
0.0033657328
0.0029654403
0.0025976177
0.0022619296
0.0019576954
0.0016839172
0.0014393152
0.0012223707
0.0010313718
0.00086446374
0.00071969779
0.00059507967
0.00048861398
0.00039834413
0.00032238615
0.00025895621
0.00020639124
0.00016316316
0.00012788692
9.9323213e-05
7.6376659e-05
5.80903e-05
4.3637458e-05
3.2311737e-05
2.351597e-05
1.6750784e-05
1.1603284e-05
7.736476e-06
4.8796191e-06
2.8200124e-06
1.3969859e-06
4.968918e-07
5.6043071e-08
0.014576246
0.013900256
0.01322133
0.012540044
0.011858429
0.011178683
0.010503274
0.0098347351
0.0091756145
0.0085284677
0.0078958306
0.0072801821
0.0066839013
0.0061092287
0.0055582259
0.0050327393
0.0045343637
0.0040644127
0.0036238934
0.0032134888
0.0028335479
0.002484085
0.0021647865
0.0018750279
0.0016138975
0.0013802279
0.0011726329
0.00098954841
0.00082927546
0.0006900243
0.00056995688
0.00046722671
0.000380015
0.00030656169
0.00024519132
0.00019433292
0.00015253452
0.00011847214
9.095411e-05
6.8921171e-05
5.1443248e-05
3.7713573e-05
2.7040903e-05
1.8840757e-05
1.2626009e-05
7.9980734e-06
4.6386393e-06
2.3042376e-06
8.2123172e-07
9.2640404e-08
0.015142836
0.014502514
0.013856248
0.013205015
0.012550265
0.011893919
0.011238124
0.01058513
0.0099372431
0.0092968249
0.0086662665
0.0080479626
0.0074442756
0.0068575036
0.0062898429
0.0057433543
0.0052199249
0.0047212363
0.004248731
0.0038035873
0.0033866961
0.0029986466
0.0026397171
0.0023098755
0.0020087859
0.0017358244
0.001490101
0.0012704886
0.0010756565
0.00090410813
0.00075422069
0.00062428554
0.00051254771
0.00041724315
0.00033663271
0.00026903168
0.00021283473
0.00016653551
0.00012874122
9.8182133e-05
7.3716713e-05
5.4332674e-05
3.9144904e-05
2.7390776e-05
1.8424013e-05
1.1707698e-05
6.8076953e-06
3.3884751e-06
1.2094126e-06
1.3644372e-07
0.015605548
0.014995961
0.014378205
0.013753662
0.013123268
0.012488706
0.011851849
0.011214688
0.010579304
0.0099478553
0.0093225663
0.0087057046
0.0080995536
0.0075063864
0.0069284336
0.0063678528
0.0058266934
0.0053068638
0.0048100969
0.0043379199
0.0038916242
0.0034722424
0.0030805278
0.0027169423
0.0023816492
0.0020745148
0.0017951168
0.0015427597
0.0013164977
0.0011151628
0.00093739842
0.00078169547
0.00064643166
0.00052991053
0.00043039991
0.00034616811
0.0002755169
0.00021681013
0.00016849781
0.00012913489
9.739511e-05
7.2079915e-05
5.2123018e-05
3.6591254e-05
2.4682613e-05
1.5722682e-05
9.1603997e-06
4.5665205e-06
1.6316958e-06
1.8410682e-07
0.015963187
0.015378403
0.014783845
0.014181314
0.013571302
0.012955301
0.012334966
0.011712076
0.011088517
0.010466272
0.0098474055
0.0092340544
0.0086284016
0.0080326578
0.0074490324
0.0068797088
0.0063268104
0.0057923717
0.0052783023
0.0047863571
0.0043181018
0.0038748857
0.0034578135
0.0030677255
0.0027051795
0.0023704425
0.0020634864
0.0017839935
0.0015313675
0.0013047527
0.0011030595
0.00092499516
0.00076909937
0.00063378242
0.00051736512
0.00041811862
0.00033430267
0.00026420115
0.00020615364
0.00015858242
0.00012001411