/*--------------------------------*- C++ -*----------------------------------*\
  =========                 |
  \\      /  F ield         | OpenFOAM: The Open Source CFD Toolbox
   \\    /   O peration     | Website:  https://openfoam.org
    \\  /    A nd           | Version:  6
     \\/     M anipulation  |
\*---------------------------------------------------------------------------*/
FoamFile
{
    version     2.0;
    format      ascii;
    class       volVectorField;
    location    "10";
    object      U_0;
}
// * * * * * * * * * * * * * * * * * * * * * * * * * * * * * * * * * * * * * //

dimensions      [0 1 -1 0 0 0 0];

internalField   nonuniform List<vector> 
9200
(
(0.0017789206 0.0011255915 -6.6279429e-20)
(0.017170464 -0.0036136456 5.2701525e-20)
(0.046244899 -0.0086699619 -4.3797921e-20)
(0.086008163 -0.013903341 -6.7716443e-20)
(0.13443593 -0.019102939 2.181417e-20)
(0.19015204 -0.023822643 3.719314e-20)
(0.25191973 -0.027770102 -1.4419453e-20)
(0.31855819 -0.030805929 1.0965901e-20)
(0.38892172 -0.032882815 1.8205766e-20)
(0.46186617 -0.034020786 1.649224e-21)
(0.53622762 -0.034294517 -2.4140175e-20)
(0.61082077 -0.033820363 2.3663512e-20)
(0.68445398 -0.032743087 -4.6202908e-20)
(0.75595792 -0.031222449 -2.4735582e-20)
(0.82422491 -0.029419183 6.8862122e-21)
(0.88825393 -0.027482897 -3.0500288e-20)
(0.94720871 -0.025530659 3.1630211e-20)
(1.0005413 -0.023517683 3.1169239e-20)
(1.0478705 -0.021273214 1.3196317e-21)
(1.0868689 -0.021630234 4.4432497e-22)
(0.0066373445 -0.0020400072 -1.9082844e-20)
(0.032364386 -0.011544705 4.4924219e-20)
(0.07275912 -0.018988564 2.683487e-20)
(0.12439481 -0.024901366 -1.2867641e-19)
(0.18489633 -0.029512379 -1.4548988e-20)
(0.25257155 -0.032629578 8.073773e-20)
(0.32584693 -0.034180944 -3.9651764e-20)
(0.40318414 -0.034232443 -9.255834e-21)
(0.48307219 -0.032924487 3.8294829e-20)
(0.56401064 -0.03045099 -4.8802086e-20)
(0.64451036 -0.027049494 -3.4714288e-20)
(0.72311786 -0.022987684 8.3930215e-20)
(0.79845612 -0.018548009 4.4882184e-20)
(0.86927509 -0.014012469 -8.1772456e-20)
(0.9345046 -0.0096493441 1.8203251e-20)
(0.99330159 -0.0057055444 -4.5954095e-20)
(1.0450947 -0.0023939328 -1.6792689e-20)
(1.0896696 0.00017127933 9.4138026e-20)
(1.1270614 0.0017049507 4.4139547e-20)
(1.1559499 -0.00039233322 -9.7537256e-20)
(0.013004188 -0.0050689291 4.067193e-20)
(0.051539473 -0.018776926 2.8342368e-21)
(0.10511489 -0.027754065 2.5585903e-20)
(0.1699189 -0.033326562 1.0812525e-21)
(0.24322582 -0.036253748 -4.6746759e-20)
(0.32299132 -0.036667219 1.9949954e-20)
(0.40726341 -0.034781858 1.542215e-20)
(0.49411535 -0.030932955 -5.6262064e-20)
(0.58166486 -0.025506783 6.4472537e-20)
(0.66808775 -0.018919849 1.6496511e-20)
(0.75165078 -0.011607618 -6.3223441e-20)
(0.83076518 -0.0040062315 -2.210069e-20)
(0.90404859 0.0034686391 8.5892907e-21)
(0.97038406 0.010441733 2.8827933e-20)
(1.0289661 0.016594347 -1.4624999e-20)
(1.0793255 0.021673754 3.4964719e-20)
(1.121332 0.025503684 -2.5235213e-20)
(1.1552008 0.028024119 -9.0836977e-20)
(1.1813635 0.029098896 -3.0655013e-20)
(1.1994291 0.027215453 5.9589411e-20)
(0.020967708 -0.0076941053 2.6890152e-20)
(0.074770522 -0.024563398 5.632722e-20)
(0.14320578 -0.033853592 2.1795939e-20)
(0.22214957 -0.037817586 1.3537574e-20)
(0.30853781 -0.037837734 1.8508457e-20)
(0.39995304 -0.034445033 -5.2493552e-20)
(0.49405294 -0.028211224 -2.8448709e-20)
(0.58854019 -0.019801881 0)
(0.68122296 -0.009895532 1.6712175e-20)
(0.7700684 0.00084196109 -7.8269977e-21)
(0.85326865 0.01177423 -1.1429012e-19)
(0.92931473 0.022319581 -1.7686739e-20)
(0.99706165 0.031977092 7.971733e-20)
(1.0557717 0.040347436 -1.0253356e-21)
(1.1051276 0.047145518 -1.9540226e-21)
(1.1452127 0.052202945 2.7502105e-20)
(1.176461 0.055466914 -6.7926199e-21)
(1.1996005 0.05701927 -7.7463322e-20)
(1.215513 0.056950975 -5.9431745e-20)
(1.2245486 0.054509993 8.3498045e-20)
(0.030537335 -0.0096148984 -4.1855878e-21)
(0.10188798 -0.028108762 -5.7718517e-21)
(0.18650907 -0.036158762 6.1740053e-20)
(0.28007463 -0.037061615 1.9852238e-20)
(0.37922321 -0.032910434 -3.4668419e-20)
(0.48118078 -0.024710668 1.3497828e-20)
(0.58325804 -0.01345367 2.9525848e-21)
(0.68287769 -0.00017853865 3.8412978e-20)
(0.77768423 0.014126648 6.5282273e-21)
(0.865636 0.02855936 -1.6194851e-20)
(0.94509132 0.042325758 7.3236928e-20)
(1.0148796 0.054769347 -6.8211273e-20)
(1.0743403 0.065394475 -1.5993774e-19)
(1.1233215 0.07387752 -6.8228752e-21)
(1.162136 0.080064074 1.0276218e-19)
(1.1914824 0.083952567 0)
(1.2123431 0.085671957 1.2624365e-20)
(1.2258818 0.085474827 -1.912625e-20)
(1.2333051 0.083634057 -1.1221774e-20)
(1.2354237 0.07983827 2.5256535e-20)
(0.041622866 -0.010509077 -5.558109e-21)
(0.13245035 -0.028615687 4.7140145e-21)
(0.23408918 -0.033615215 -9.4707375e-21)
(0.34216698 -0.029931763 3.1033418e-20)
(0.45311166 -0.020436981 -3.2256449e-20)
(0.56386767 -0.0066704564 -1.880513e-20)
(0.67151595 0.0099192678 4.096653e-20)
(0.77337201 0.027913982 5.0117148e-21)
(0.86714109 0.046046636 -2.9704016e-20)
(0.95103235 0.063243993 8.1835482e-20)
(1.0238382 0.078650002 -7.648266e-22)
(1.0849702 0.091646886 -9.7508166e-20)
(1.1344409 0.10186193 0)
(1.1727941 0.10915458 4.8515856e-20)
(1.2009947 0.11358584 6.7712219e-21)
(1.2202937 0.11537484 -9.4386534e-20)
(1.2320905 0.11485254 -2.3943032e-20)
(1.2378127 0.11243217 -1.5068966e-20)
(1.2387971 0.10851386 -1.8091869e-20)
(1.2360224 0.10304171 4.9242582e-20)
(0.054022936 -0.010056677 -1.8276513e-20)
(0.16573466 -0.025349379 -2.9001985e-21)
(0.28462147 -0.025337349 3.2553039e-20)
(0.40646816 -0.015599695 4.024433e-20)
(0.52763539 0.00018543438 -2.1808502e-20)
(0.64493155 0.019920225 -7.7336909e-20)
(0.75540263 0.041707464 -3.2282805e-20)
(0.85650138 0.06380017 9.0424399e-20)
(0.94626834 0.084742208 1.0942936e-20)
(1.0234384 0.10341022 -2.8535522e-20)
(1.0874784 0.11902291 1.5057624e-20)
(1.1385557 0.13113708 -5.5234133e-21)
(1.177442 0.13962075 0)
(1.2053688 0.14460322 3.260014e-20)
(1.2238596 0.14640978 -9.5150506e-20)
(1.2345618 0.14549093 -3.7874114e-20)
(1.239102 0.14235818 9.7210709e-20)
(1.2389785 0.13754225 -6.1550041e-21)
(1.2354833 0.13150938 3.9779264e-21)
(1.2295609 0.12434599 3.3560296e-20)
(0.067421646 -0.0079707111 -3.410336e-20)
(0.2007507 -0.01771442 -8.7560695e-20)
(0.33645159 -0.01070915 1.8663073e-21)
(0.47071119 0.006362777 7.6560618e-20)
(0.60002413 0.029049791 6.8789426e-20)
(0.72127757 0.054727424 -7.8696652e-20)
(0.83174165 0.081120889 8.3213358e-22)
(0.92929323 0.10626938 9.9370027e-20)
(1.0125897 0.12867474 5.6523206e-20)
(1.081131 0.14732495 -6.3883829e-20)
(1.1352229 0.16166885 -1.0876455e-19)
(1.1758583 0.17156774 -3.7307665e-21)
(1.2045392 0.17722098 4.9835698e-20)
(1.2230719 0.17907292 -7.6684994e-21)
(1.2333677 0.17771547 -1.4761891e-20)
(1.2372744 0.17379882 2.2379745e-20)
(1.2364549 0.16796204 5.1879318e-20)
(1.2323186 0.16079267 -5.1190352e-20)
(1.2259949 0.15276494 -1.2144718e-19)
(1.2182855 0.14403899 3.0438254e-20)
(0.081359864 -0.0040297865 -3.7682751e-20)
(0.23620656 -0.0053331594 -1.8287908e-19)
(0.38757762 0.010534671 8.9960966e-20)
(0.53233179 0.035930697 1.015673e-19)
(0.66735074 0.065736 6.3697661e-20)
(0.78987174 0.096899096 9.7281713e-21)
(0.89768348 0.12690778 -1.200438e-19)
(0.98937268 0.15376324 0)
(1.0644517 0.17611469 -8.0664193e-20)
(1.1233432 0.19324024 -1.7985609e-20)
(1.1672497 0.20496515 6.3921453e-20)
(1.1979465 0.21155386 1.2717013e-20)
(1.2175398 0.21358252 -5.3143891e-20)
(1.2282306 0.2118075 -5.6826812e-20)
(1.2321194 0.20704744 2.893349e-20)
(1.2310687 0.20009123 5.3219217e-20)
(1.2266281 0.19163833 -6.5566942e-20)
(1.2200166 0.18227195 -1.2568748e-19)
(1.2121474 0.17242881 -2.7340037e-21)
(1.2036414 0.16230537 3.1378868e-20)
(0.095221853 0.0019073368 -4.5273833e-21)
(0.27052351 0.011945429 9.4126751e-20)
(0.43570281 0.038322613 -1.3431829e-20)
(0.58857122 0.072662952 -9.4184276e-20)
(0.72668019 0.10936974 5.0354884e-20)
(0.84791017 0.14514429 5.3766254e-20)
(0.95085232 0.17744915 6.3297203e-21)
(1.0350386 0.20447452 -1.1387891e-19)
(1.1009887 0.22522804 -2.8940293e-21)
(1.1500972 0.23944771 5.8509468e-20)
(1.1844106 0.24744715 6.8670647e-21)
(1.2063506 0.24994316 -2.3440451e-20)
(1.2184404 0.24788201 -8.7793408e-20)
(1.2230749 0.24228464 -6.7848152e-21)
(1.2223614 0.23412712 5.0090548e-20)
(1.2180348 0.22426324 4.2477182e-20)
(1.2114397 0.21338756 2.2018234e-20)
(1.203563 0.20202959 -6.3330116e-20)
(1.1950973 0.19056035 1.2369982e-20)
(1.1864881 0.17919567 9.4105254e-20)
(-0.0015914889 0.0017692636 -1.2988278e-21)
(-0.005831355 0.0039173052 2.5116673e-21)
(-0.013215867 0.0050839339 1.1452095e-21)
(-0.021785237 0.0055956338 -3.0143014e-21)
(-0.030391162 0.0056570861 -1.6787143e-21)
(-0.038522128 0.0054030554 1.7554201e-21)
(-0.045853972 0.0049297651 -8.3603895e-21)
(-0.052168314 0.0043053444 -7.0981218e-21)
(-0.057334505 0.0035766875 1.3777379e-20)
(-0.061280571 0.0027751455 -1.2162146e-20)
(-0.063969061 0.0019206797 -1.2304074e-22)
(-0.065381473 0.001024823 4.8901143e-21)
(-0.065507914 9.2891113e-05 -7.2877625e-22)
(-0.064339854 -0.00087426041 3.0415744e-20)
(-0.061865331 -0.0018785643 1.8525101e-22)
(-0.058068188 -0.0029227523 -5.7091863e-20)
(-0.052931878 -0.0040095711 1.122749e-20)
(-0.046427937 -0.0051449764 3.4705218e-20)
(-0.038475673 -0.0063352515 -6.5747421e-20)
(-0.029056034 -0.0075206061 -4.2630568e-20)
(-0.0020160918 0.0051381642 -6.7097129e-21)
(-0.0065693487 0.011355253 1.309466e-20)
(-0.013631453 0.014717713 -1.249353e-20)
(-0.021450987 0.016169245 4.7918089e-21)
(-0.028998771 0.016304658 5.744537e-21)
(-0.035819893 0.015518007 8.4839525e-22)
(-0.0416265 0.014090977 -2.6817188e-20)
(-0.046224156 0.012222981 -2.564881e-21)
(-0.049495749 0.010051299 2.4825547e-20)
(-0.051375275 0.0076677315 -6.2362283e-21)
(-0.051826098 0.0051307588 -2.7491582e-20)
(-0.050827061 0.0024742243 6.2265357e-21)
(-0.048363422 -0.00028616101 2.8457596e-20)
(-0.044420414 -0.0031476065 1.3574357e-20)
(-0.038978396 -0.0061153237 2.9995358e-20)
(-0.032014397 -0.0091974038 -2.712225e-20)
(-0.023515253 -0.012401435 -3.0061374e-20)
(-0.013468686 -0.015741881 3.1563492e-20)
(-0.0017001678 -0.019220286 3.913184e-20)
(0.012168732 -0.022630856 2.2373e-20)
(-0.0027776494 0.008007744 -5.3938037e-21)
(-0.0078441354 0.01763256 -6.6437538e-21)
(-0.014206032 0.022803097 3.5218324e-22)
(-0.020509465 0.024970957 1.4040972e-21)
(-0.025952243 0.025060801 8.1247865e-21)
(-0.03018836 0.023693513 1.3050911e-20)
(-0.03300139 0.021314416 -4.3932736e-21)
(-0.034245081 0.018239172 -2.3305846e-20)
(-0.03383104 0.014685609 8.0171083e-21)
(-0.031708176 0.010799851 1.5616069e-20)
(-0.02784576 0.0066754427 8.0561093e-21)
(-0.022222837 0.0023670527 2.189998e-20)
(-0.014821625 -0.0020991582 2.1916258e-21)
(-0.0056233361 -0.0067175244 -4.2774896e-20)
(0.0053959521 -0.011494808 2.4880659e-21)
(0.018262248 -0.01644223 -2.7611877e-20)
(0.03297477 -0.021572826 -3.4822582e-20)
(0.049503164 -0.026907108 6.5712779e-20)
(0.068153647 -0.03240258 3.8155677e-20)
(0.089959248 -0.037611938 2.0292082e-21)
(-0.0037237416 0.010114958 -6.5267413e-21)
(-0.0093179176 0.022126482 -1.0975773e-20)
(-0.014537191 0.028500549 5.2351091e-21)
(-0.018561209 0.031035962 4.9797715e-21)
(-0.020897304 0.030896772 2.4444232e-21)
(-0.021352012 0.028881099 8.4982886e-21)
(-0.019812272 0.025564184 1.0833621e-20)
(-0.016204576 0.021354578 -1.3762746e-21)
(-0.010487678 0.016535351 -1.3340704e-20)
(-0.002639919 0.011297422 -3.4985271e-20)
(0.0073506958 0.0057641612 4.9567394e-22)
(0.019492551 8.7468096e-06 4.943069e-20)
(0.033792793 -0.0059322848 -2.167653e-20)
(0.050258463 -0.012048071 -1.5335004e-20)
(0.06889947 -0.018344165 -3.8438112e-22)
(0.089725441 -0.024833513 4.217385e-20)
(0.1127006 -0.031536459 -2.1600276e-20)
(0.13771561 -0.038485806 -7.1115896e-20)
(0.16516632 -0.045567258 6.1915332e-20)
(0.19693005 -0.051961925 4.5608e-20)
(-0.0046560499 0.011295935 -6.6374681e-22)
(-0.010537523 0.024427353 -1.4988554e-20)
(-0.014067006 0.031239731 -4.1077681e-20)
(-0.015031024 0.03369732 -6.7728001e-21)
(-0.013298182 0.033097793 -4.4917464e-21)
(-0.0088599677 0.030356802 7.2668667e-21)
(-0.0017339256 0.026138326 -5.0014059e-21)
(0.0080566376 0.020914557 -9.460569e-21)
(0.020484226 0.015014232 2.5081377e-20)
(0.035520331 0.0086603972 5.2166446e-21)
(0.053138165 0.0019988913 -3.1198202e-20)
(0.073310706 -0.0048812306 1.2609711e-20)
(0.096009107 -0.011932504 0)
(0.12120036 -0.019137257 1.4605704e-20)
(0.14884757 -0.026497196 -1.1880294e-20)
(0.17890727 -0.03402463 -1.8382889e-20)
(0.21127568 -0.041749461 6.0921883e-22)
(0.24572377 -0.049733565 -3.8784462e-21)
(0.28263786 -0.057801631 5.7788806e-20)
(0.32478134 -0.064641661 -1.7351754e-20)
(-0.0053561975 0.011494301 -8.816963e-21)
(-0.010981026 0.024365381 2.9354847e-20)
(-0.012121639 0.03076502 -1.2597395e-20)
(-0.0091878079 0.032648579 -3.2329938e-20)
(-0.0024315982 0.031340808 -3.2460609e-20)
(0.0079496406 0.02781252 -1.7313602e-20)
(0.021786177 0.022771171 -4.5198897e-22)
(0.038934782 0.016719691 5.8657156e-21)
(0.059276704 0.010010262 2.1620556e-20)
(0.082708212 0.0028841186 8.3797747e-21)
(0.10913308 -0.0044991391 -7.9951869e-21)
(0.1384566 -0.012039494 -1.5925876e-21)
(0.17057795 -0.019680454 -4.4641719e-20)
(0.20538325 -0.027396882 -1.492414e-20)
(0.24274279 -0.035184776 2.3659422e-20)
(0.28250956 -0.043053903 -2.6351286e-20)
(0.32446624 -0.051044523 -1.1068563e-20)
(0.36822509 -0.059266695 3.6238591e-20)
(0.41405049 -0.067534219 6.2638139e-20)
(0.46549258 -0.073986673 4.5138542e-21)
(-0.0056066278 0.010749153 1.9270569e-20)
(-0.010099664 0.02199954 1.6644678e-20)
(-0.0079532172 0.027138942 5.9795894e-20)
(-0.00017636012 0.027965435 2.733799e-20)
(0.012596351 0.025733296 2.1049201e-22)
(0.029950495 0.021408269 -4.4934422e-20)
(0.051547615 0.015696656 -2.8205614e-20)
(0.077105437 0.0091000339 1.1526421e-20)
(0.1063841 0.0019697011 1.6170063e-20)
(0.13917116 -0.0054520637 -1.3988802e-20)
(0.17526481 -0.013003552 -5.0251178e-20)
(0.21446 -0.020582134 3.3974208e-20)
(0.25653594 -0.028128154 2.2210719e-20)
(0.30124539 -0.03561322 -3.178762e-20)
(0.34830927 -0.043031078 1.3993192e-20)
(0.39741778 -0.050392143 2.8503049e-20)
(0.4481876 -0.05775014 1.0066208e-20)
(0.50004114 -0.065280794 -1.5473718e-20)
(0.55303291 -0.072865264 -1.6237158e-20)
(0.61129546 -0.078149471 1.1608947e-20)
(-0.0052024031 0.0091710705 1.2851566e-20)
(-0.0073484779 0.017577651 -2.7818267e-20)
(-0.00078057118 0.020706985 9.5520123e-21)
(0.012937099 0.020081764 3.8978652e-20)
(0.032801752 0.016800825 6.0369272e-20)
(0.058178141 0.011771524 2.3205366e-20)
(0.088543649 0.0056577802 -6.9875629e-21)
(0.12344844 -0.0010746583 -1.3409848e-20)
(0.16250015 -0.0081000739 -7.4536198e-21)
(0.20533709 -0.015194868 3.8504585e-20)
(0.25160316 -0.022211405 -6.0004183e-21)
(0.30092794 -0.029058101 -1.9287334e-20)
(0.35291086 -0.035684572 -2.1713621e-20)
(0.40710917 -0.0420713 -5.4339128e-20)
(0.46303363 -0.048222295 2.6647628e-20)
(0.52015586 -0.054161806 -1.6613534e-20)
(0.57788596 -0.059970283 3.1754207e-20)
(0.63545603 -0.065913107 2.5885813e-20)
(0.6926904 -0.072039749 -1.0066985e-19)
(0.75405647 -0.075714393 1.2228792e-21)
(-0.0039560051 0.0069169271 2.4905183e-20)
(-0.0022121137 0.011491715 -3.0603492e-20)
(0.010158261 0.012053264 -5.1762864e-20)
(0.031081977 0.0097539701 -3.1362438e-20)
(0.059207929 0.0054658206 -2.3229658e-21)
(0.093670579 -1.1810162e-05 1.4112395e-20)
(0.13374247 -0.0060970781 -2.6713194e-21)
(0.17877658 -0.012392766 2.0047763e-20)
(0.22818542 -0.018627388 9.4386471e-21)
(0.28140624 -0.024620807 -1.2540331e-20)
(0.33786975 -0.030262092 1.0932594e-20)
(0.39697747 -0.03549226 -2.6681718e-20)
(0.45808642 -0.04029113 1.0141646e-20)
(0.52050061 -0.044668108 1.9281629e-20)
(0.58347223 -0.04865562 -3.2007133e-21)
(0.64621707 -0.052307026 1.9130825e-21)
(0.7079145 -0.055739438 -6.5920242e-23)
(0.76762697 -0.059294992 2.3886943e-20)
(0.82499756 -0.063181773 4.9279346e-21)
(0.8846197 -0.06492025 -6.9179658e-21)
(-0.0016944782 0.0041720225 2.7229616e-20)
(0.0057772507 0.004248344 6.6244327e-20)
(0.025545096 0.0019790584 -5.6303387e-20)
(0.05506674 -0.0019407424 -1.131329e-20)
(0.092655085 -0.0069372748 2.2532331e-20)
(0.13720426 -0.012365631 2.391904e-21)
(0.18775559 -0.017767439 -3.304089e-20)
(0.24342451 -0.022852802 7.3150498e-21)
(0.30337693 -0.02744062 8.5052421e-21)
(0.36679081 -0.031428942 -2.9507649e-20)
(0.43282467 -0.034777701 1.6465592e-21)
(0.50059968 -0.037494083 -4.1865241e-20)
(0.56919351 -0.039620032 -4.1740113e-20)
(0.63764444 -0.041221744 7.6564786e-20)
(0.7049654 -0.04238011 6.6352943e-21)
(0.77016569 -0.043186025 -1.9064455e-20)
(0.83225757 -0.043771326 2.3294017e-20)
(0.89020789 -0.044388966 -1.1219652e-21)
(0.94334321 -0.045055587 2.241097e-20)
(0.99490601 -0.044303542 -2.8398042e-20)
(-0.017317045 -0.0084150299 9.3412264e-20)
(-0.0025998543 -0.0097917074 2.4369996e-20)
(0.015269476 -0.011098971 -5.7681764e-20)
(0.036015281 -0.01222116 3.0855757e-20)
(0.059445998 -0.013254563 0)
(0.085632795 -0.014217981 0)
(0.11462349 -0.015088756 -4.3455718e-20)
(0.1463883 -0.015850174 -3.0940965e-20)
(0.18085207 -0.016489588 3.8881911e-20)
(0.21789515 -0.016992404 3.5913567e-20)
(0.2573401 -0.017344108 1.4556487e-21)
(0.29894659 -0.017533024 -1.7905163e-20)
(0.34241315 -0.017551244 1.7232335e-20)
(0.38738102 -0.017394969 2.7804912e-20)
(0.43343953 -0.017064705 -1.0831358e-20)
(0.48013325 -0.016565089 -1.1835677e-20)
(0.52697014 -0.015904368 -4.0799222e-21)
(0.5734297 -0.015093781 -1.9534535e-21)
(0.61897104 -0.014147162 -6.2938167e-23)
(0.66304207 -0.013081072 6.5601025e-22)
(0.70509185 -0.011915597 1.7482882e-21)
(0.74458932 -0.010675688 2.0720956e-22)
(0.78105103 -0.0093924476 -1.4104438e-21)
(0.81407789 -0.0081034181 9.3467516e-22)
(0.84339674 -0.0068508282 -2.910928e-22)
(0.86889684 -0.005677336 2.904202e-22)
(0.89064848 -0.004619909 -7.0607384e-22)
(0.90889306 -0.0037037333 -8.6299078e-22)
(0.92400304 -0.0029385482 4.5140997e-22)
(0.93642187 -0.0023189954 1.518438e-22)
(0.94660226 -0.0018286999 -3.5406149e-22)
(0.95496006 -0.0014460594 2.0495716e-22)
(0.96185091 -0.0011492899 1.2094889e-22)
(0.96756629 -0.00091931626 8.4057895e-23)
(0.97233977 -0.00074061144 7.2417322e-23)
(0.97635587 -0.00060093457 1.314447e-22)
(0.97975859 -0.00049081028 -1.4489124e-22)
(0.98265928 -0.00040306608 -1.6777871e-22)
(0.98514406 -0.00033240427 -4.0101008e-23)
(0.98728028 -0.00027496673 3.3061937e-23)
(0.98912158 -0.00022792872 -3.0790745e-23)
(0.99071148 -0.00018917981 3.3615904e-23)
(0.99208554 -0.00015711032 -4.5390762e-23)
(0.99327397 -0.00013046691 -5.5925252e-23)
(0.99430001 -0.00010828102 1.6389689e-23)
(0.99519019 -8.9745587e-05 2.0950632e-23)
(0.99594597 -7.434042e-05 4.7079625e-24)
(0.99663401 -6.1258882e-05 2.3100747e-24)
(0.99711445 -5.1250566e-05 -3.0402029e-25)
(0.99783254 -3.8078387e-05 7.0491631e-24)
(0.026182082 -0.025105998 -2.2508097e-20)
(0.040170059 -0.029137715 -1.004278e-19)
(0.05780206 -0.032925985 -5.4112475e-20)
(0.078146297 -0.036149191 6.8104562e-20)
(0.10082588 -0.039125549 2.6878939e-20)
(0.12600329 -0.041913305 -3.7061543e-20)
(0.15376162 -0.044437149 1.3060371e-20)
(0.18406819 -0.04664579 4.7975697e-20)
(0.21685525 -0.048502982 -3.8115122e-21)
(0.2520201 -0.049965733 -1.664266e-20)
(0.28940493 -0.050990707 -1.8500736e-20)
(0.32879232 -0.051543068 -1.9237923e-20)
(0.36990836 -0.051599178 3.0133676e-20)
(0.41242631 -0.051147443 2.5517258e-20)
(0.45597139 -0.050188889 -1.8008661e-20)
(0.50012746 -0.048736657 -7.5045285e-21)
(0.54444439 -0.046814403 1.8916456e-21)
(0.58844532 -0.044454387 4.6545804e-21)
(0.63163338 -0.041696219 5.6691295e-21)
(0.6734991 -0.03858715 -7.1645503e-21)
(0.71353053 -0.035184426 -5.3423514e-21)
(0.75122918 -0.031559343 3.7214145e-21)
(0.7861348 -0.027801318 3.8508795e-21)
(0.81785948 -0.024019108 5.4046472e-22)
(0.84612757 -0.020336076 5.7892057e-22)
(0.87081223 -0.016877931 -3.8917527e-22)
(0.89195619 -0.013754723 -3.6218963e-23)
(0.90976589 -0.011042596 4.0790082e-22)
(0.92457633 -0.008772493 1.0285362e-23)
(0.9367956 -0.0069306631 -5.5221892e-22)
(0.94684645 -0.005470361 3.7306638e-26)
(0.9551215 -0.0043288243 1.3760577e-22)
(0.96195975 -0.003442247 -1.3332254e-23)
(0.96764152 -0.0027544655 1.6526951e-22)
(0.97239316 -0.0022195755 -2.2994974e-22)
(0.97639478 -0.0018012613 -2.1599958e-22)
(0.97978765 -0.001471327 7.4721466e-23)
(0.98268149 -0.0012083782 8.6957159e-23)
(0.98516138 -0.00099658682 2.0729452e-23)
(0.98729408 -0.00082441279 -3.0830493e-23)
(0.98913277 -0.00068340087 9.7056246e-23)
(0.99072072 -0.00056723123 2.7178809e-25)
(0.99209328 -0.00047108213 -9.0280047e-25)
(0.99328054 -0.00039119834 6.169183e-24)
(0.99430563 -0.00032467786 1.8397477e-23)
(0.99519505 -0.0002691005 2.3977054e-23)
(0.99595018 -0.00022291157 -8.9262129e-24)
(0.99663766 -0.00018368125 -1.3162171e-23)
(0.99711771 -0.00015369129 1.3485982e-23)
(0.99783524 -0.00011417501 2.9556594e-23)
(0.10790219 -0.041147628 1.5685782e-20)
(0.12041237 -0.047505578 7.8802769e-21)
(0.13733194 -0.053414208 -2.778353e-20)
(0.15675676 -0.058375171 -5.3359152e-21)
(0.17788646 -0.062981009 3.0421427e-20)
(0.20104683 -0.067332741 -2.7771296e-20)
(0.22640313 -0.071289074 -6.1049857e-20)
(0.25391514 -0.074761376 3.2399432e-20)
(0.28352483 -0.077693091 4.0019684e-20)
(0.31516056 -0.080014763 -2.5432051e-20)
(0.34870038 -0.081654562 1.9914037e-21)
(0.38396756 -0.082554384 8.9444166e-21)
(0.42073685 -0.082674361 -3.2337217e-20)
(0.45873786 -0.081993998 2.0308321e-20)
(0.49765874 -0.080513092 1.6056001e-20)
(0.53715188 -0.078250951 -1.0476209e-20)
(0.57684039 -0.075243687 -6.1770752e-21)
(0.61632384 -0.071540852 -1.2473275e-20)
(0.65518302 -0.067203027 1.4274876e-20)
(0.69298452 -0.062301935 1.0234668e-20)
(0.72928702 -0.05692409 -3.5158762e-21)
(0.76365239 -0.05117759 -4.1142031e-22)
(0.79566488 -0.045199469 -1.5017692e-21)
(0.82495998 -0.039158938 -1.0264822e-21)
(0.8512607 -0.033251189 -4.5777918e-22)
(0.87441356 -0.027678707 -3.1372429e-22)
(0.89441276 -0.02262243 2.0286867e-21)
(0.91140147 -0.018211449 -1.1236373e-21)
(0.92564575 -0.014503106 8.7300214e-22)
(0.93748796 -0.011482073 4.0742384e-23)
(0.94729459 -0.0090780498 8.3915484e-22)
(0.95541438 -0.0071928486 -1.8147439e-22)
(0.96215474 -0.0057248855 2.2265371e-22)
(0.96777458 -0.0045837663 -1.457369e-22)
(0.97248655 -0.0036949992 5.74056e-23)
(0.97646222 -0.002999241 2.3729437e-22)
(0.97983772 -0.0024501455 -6.165157e-23)
(0.98271964 -0.0020123792 -1.6761378e-22)
(0.98519121 -0.0016597151 5.4415301e-23)
(0.98731795 -0.0013729888 1.5258728e-23)
(0.98915231 -0.0011381427 1.8226798e-23)
(0.99073703 -0.00094466319 1.0706752e-22)
(0.99210714 -0.00078452533 -3.4182268e-23)
(0.99329249 -0.00065147706 -2.8177175e-23)
(0.99431604 -0.0005406874 2.3010456e-23)
(0.99520417 -0.00044812164 5.0634217e-24)
(0.99595823 -0.000371204 2.1350196e-23)
(0.99664474 -0.0003058517 5.2462782e-24)
(0.99712411 -0.00025596989 -1.215704e-23)
(0.99784062 -0.00019010493 -1.1436166e-23)
(0.21945652 -0.055877173 3.8970854e-21)
(0.22969719 -0.064072134 -1.4669004e-20)
(0.24514112 -0.071567923 7.3035114e-21)
(0.26297352 -0.07777635 -2.2686901e-20)
(0.28173732 -0.083598286 -3.5016198e-21)
(0.30193729 -0.089164985 2.073404e-20)
(0.32387515 -0.094260207 -2.677737e-20)
(0.34750087 -0.098756996 -3.3835344e-21)
(0.37275928 -0.10258065 2.5427123e-20)
(0.39961608 -0.10563768 1.1360504e-20)
(0.42799458 -0.1078288 -1.2157008e-20)
(0.45776784 -0.10907226 -1.0331455e-20)
(0.48876977 -0.10931062 -3.6894589e-21)
(0.52079877 -0.1085124 -1.5645668e-20)
(0.55361966 -0.10667338 -3.8293889e-21)
(0.58696818 -0.10381559 -9.5468405e-21)
(0.62055646 -0.099983621 5.6387557e-21)
(0.65407745 -0.095239625 -3.8059696e-21)
(0.68720782 -0.089659271 -1.0643098e-20)
(0.71960966 -0.083331044 4.9167972e-21)
(0.7509326 -0.076360568 7.2509645e-21)
(0.78081902 -0.068879888 -5.2658868e-21)
(0.80891605 -0.061058573 2.0361829e-21)
(0.83489694 -0.053110406 -1.6851646e-21)
(0.85849123 -0.045287994 -4.8328809e-21)
(0.87951842 -0.037860209 -1.6046089e-22)
(0.89791515 -0.031074436 -9.0498013e-22)
(0.9137448 -0.025114681 -9.8853207e-22)
(0.92718345 -0.020071851 5.7179904e-22)
(0.93848535 -0.015939013 -9.8837881e-22)
(0.94794008 -0.012632576 -1.2745231e-22)
(0.95583536 -0.0100277 -2.5640261e-22)
(0.96243398 -0.007991603 -2.622095e-22)
(0.9679643 -0.0064041371 -1.5902031e-22)
(0.97261913 -0.0051650525 2.331444e-22)
(0.97655763 -0.0041936523 -2.9782926e-22)
(0.97990838 -0.0034263521 -2.7046114e-22)
(0.98277346 -0.0028143323 1.0588233e-22)
(0.98523331 -0.0023211695 1.9087957e-24)
(0.98735173 -0.001920164 -3.0325328e-23)
(0.98918008 -0.0015916956 1.4952044e-22)
(0.99076035 -0.0013210776 -4.6191308e-23)
(0.99212707 -0.0010970945 -1.3994567e-22)
(0.99330977 -0.00091100378 4.3258162e-23)
(0.99433119 -0.00075605152 -6.390714e-24)
(0.99521755 -0.00062658573 1.2526731e-23)
(0.99597009 -0.00051902991 1.4294504e-23)
(0.99665522 -0.00042760289 -4.7699193e-24)
(0.99713363 -0.00035797297 -9.1939375e-24)
(0.99784868 -0.00026575828 1.8181635e-23)
(0.35141234 -0.06830986 -3.2531348e-20)
(0.35842807 -0.077859908 6.8327671e-20)
(0.37133533 -0.086360291 1.4645402e-20)
(0.38668626 -0.093319266 -2.627257e-20)
(0.40224054 -0.09995785 -6.7204753e-21)
(0.41861894 -0.10639667 9.3756649e-22)
(0.43629592 -0.11234393 -7.0046375e-21)
(0.45521921 -0.11763968 -8.8268143e-21)
(0.475322 -0.12219049 -7.8183282e-21)
(0.49660098 -0.12588024 -2.4119963e-20)
(0.51902485 -0.12858471 4.258833e-20)
(0.54251613 -0.1301986 1.7920489e-20)
(0.56696703 -0.13064499 -3.1729448e-20)
(0.59224464 -0.1298785 8.992213e-21)
(0.6181909 -0.12788723 4.0845262e-21)
(0.64462544 -0.12469183 8.4692208e-21)
(0.67135003 -0.12034103 2.269472e-21)
(0.69815207 -0.11490501 -1.3454792e-20)
(0.72480626 -0.1084693 -5.5208841e-21)
(0.75107431 -0.10113236 -4.5640469e-21)
(0.77670355 -0.093009519 -8.5243695e-21)
(0.80142672 -0.084244028 0)
(0.82496642 -0.075021895 -2.9528966e-21)
(0.84704762 -0.065583294 1.9350171e-21)
(0.8674195 -0.056220536 4.4582415e-21)
(0.88588408 -0.047254898 3.4730528e-22)
(0.90232419 -0.03899281 -3.3952055e-21)
(0.91672065 -0.031673584 3.2913844e-21)
(0.92915091 -0.025428886 -1.6132015e-21)
(0.93976886 -0.020271469 1.3755143e-21)
(0.94877374 -0.016116685 2.8400362e-22)
(0.95637981 -0.012823846 -5.2248383e-23)
(0.96279492 -0.010237256 -2.3324424e-22)
(0.96820908 -0.0082127698 3.6843322e-22)
(0.97278979 -0.0066280925 -2.2256836e-22)
(0.9766802 -0.0053834071 -8.6017327e-23)
(0.97999908 -0.0043991279 8.7538749e-23)
(0.98284252 -0.0036135657 6.1962532e-23)
(0.98528738 -0.0029803754 -7.9279685e-23)
(0.98739522 -0.0024654385 4.3193256e-23)
(0.98921592 -0.0020436221 8.0116432e-24)
(0.99079055 -0.0016960915 -1.425407e-22)
(0.99215299 -0.0014084549 1.3501474e-22)
(0.99333234 -0.0011694868 2.8757881e-23)
(0.99435105 -0.00097051742 -6.0115309e-24)
(0.99523514 -0.00080427323 4.315601e-24)
(0.99598574 -0.00066620387 -1.4082029e-23)
(0.99666909 -0.00054876849 -2.1323715e-23)
(0.99714627 -0.00045958814 -3.6428677e-24)
(0.99785938 -0.00034102474 -5.6915895e-24)
(0.49474111 -0.077006566 -2.7165921e-20)
(0.49743044 -0.087619998 1.6839697e-20)
(0.5065342 -0.096678236 8.6070162e-21)
(0.51833282 -0.10403821 -1.2542908e-20)
(0.52983798 -0.11122537 2.0282715e-20)
(0.54165515 -0.11829464 1.3716264e-20)
(0.55442064 -0.12489225 -1.9511612e-20)
(0.56810045 -0.13084051 -1.1382008e-20)
(0.58260206 -0.13602533 2.4347867e-20)
(0.59793219 -0.14030745 -3.8439595e-20)
(0.61409353 -0.14354109 -2.7263559e-20)
(0.63104958 -0.14559911 3.8620692e-20)
(0.64874086 -0.14638385 1.342199e-20)
(0.66709281 -0.14583296 -2.3074744e-20)
(0.68601467 -0.14392296 6.3190824e-21)
(0.70540016 -0.14066873 2.8062982e-21)
(0.72513046 -0.13611883 -2.1992933e-21)
(0.74507697 -0.13034755 4.7452698e-21)
(0.76510244 -0.12344654 -1.3485194e-21)
(0.78505971 -0.11551976 2.7041262e-21)
(0.80478836 -0.10668582 5.6633279e-21)
(0.82411052 -0.097089339 -4.9557487e-21)
(0.84282887 -0.086918889 1.3141563e-22)
(0.86073028 -0.076423692 -1.5308986e-22)
(0.87759801 -0.065917163 1.3443576e-20)
(0.89323253 -0.055756643 5.4055865e-21)
(0.90747699 -0.046297161 2.3787995e-21)
(0.92023908 -0.03783097 -4.7272657e-22)
(0.93150124 -0.030535949 3.8353039e-21)
(0.94131516 -0.024455305 4.4773335e-21)
(0.94978424 -0.019515979 5.1848043e-23)
(0.95704209 -0.015573121 1.2009317e-21)
(0.96323448 -0.012457382 1.6268404e-22)
(0.96850703 -0.010007231 2.3610601e-22)
(0.97299725 -0.008082703 1.2478629e-22)
(0.97682902 -0.0065675611 4.5351744e-22)
(0.98010911 -0.0053677424 5.4825166e-23)
(0.98292633 -0.0044094583 -1.2517075e-23)
(0.98535307 -0.0036367867 -1.2008957e-23)
(0.98744814 -0.0030083254 2.0870401e-22)
(0.98925966 -0.0024934898 -2.0376846e-23)
(0.9908275 -0.002069323 1.1966666e-22)
(0.99218481 -0.0017182713 3.2582299e-23)
(0.99336013 -0.0014266334 -1.0870155e-22)
(0.99437558 -0.0011838316 -2.1911924e-23)
(0.99525692 -0.00098096404 -3.6110676e-23)
(0.99600516 -0.00081254028 1.1107544e-23)
(0.99668632 -0.00066918091 -1.038536e-23)
(0.99716199 -0.0005607038 -1.5912762e-27)
(0.9978727 -0.00041579252 3.4926106e-23)
(0.64099427 -0.08047346 2.4001727e-21)
(0.6384095 -0.092037901 -2.3575535e-20)
(0.64248074 -0.10143341 -4.091636e-21)
(0.64965581 -0.10911975 8.1174628e-21)
(0.65641478 -0.11681831 7.1012667e-21)
(0.66316474 -0.12445641 4.4084331e-21)
(0.67062531 -0.13164863 1.6466204e-20)
(0.67881237 -0.13822417 1.5612307e-20)
(0.68760903 -0.14405107 1.6810487e-20)
(0.69700288 -0.14896714 -2.3656468e-20)
(0.70700765 -0.15280864 -4.9660256e-20)
(0.71761302 -0.15543015 -1.4072007e-20)
(0.72879295 -0.15671423 3.7219375e-20)
(0.74051529 -0.15658033 2.8674378e-20)
(0.75274104 -0.15499051 -5.6545734e-21)
(0.76542295 -0.15195031 -6.8232138e-21)
(0.77850632 -0.14750451 -1.4743447e-20)
(0.79193079 -0.14172856 1.9006872e-20)
(0.80563102 -0.13471799 -3.6495336e-22)
(0.81953545 -0.12658036 -3.8067747e-21)
(0.83356232 -0.1174346 1.9092126e-20)
(0.84761358 -0.10742107 -3.6670998e-21)
(0.86156846 -0.096721303 3.2469529e-21)
(0.87527978 -0.085579532 2.6592691e-21)
(0.88857657 -0.074313213 -4.0956299e-21)
(0.90127525 -0.063298746 3.0654781e-21)
(0.91319906 -0.052926772 -5.2473176e-22)
(0.92420075 -0.043536673 -1.1788628e-21)