/*--------------------------------*- C++ -*----------------------------------*\
  =========                 |
  \\      /  F ield         | OpenFOAM: The Open Source CFD Toolbox
   \\    /   O peration     | Website:  https://openfoam.org
    \\  /    A nd           | Version:  6
     \\/     M anipulation  |
\*---------------------------------------------------------------------------*/
FoamFile
{
    version     2.0;
    format      ascii;
    class       volScalarField;
    location    "322";
    object      pPrime2Mean;
}
// * * * * * * * * * * * * * * * * * * * * * * * * * * * * * * * * * * * * * //

dimensions      [0 4 -4 0 0 0 0];

internalField   nonuniform List<scalar> 
9200
(
0.034975535
0.028998402
0.02393772
0.020642537
0.018011784
0.015794
0.013879932
0.012213839
0.010758615
0.0094845544
0.0083670646
0.0073855429
0.0065226035
0.0057634862
0.0050955953
0.0045081605
0.0039920639
0.0035396944
0.0031453452
0.0028015062
0.02837866
0.023485906
0.019393973
0.016703703
0.014544706
0.012719132
0.01114116
0.0097669935
0.0085671384
0.0075178344
0.0065992553
0.0057946416
0.0050897046
0.0044721679
0.0039314139
0.003458232
0.0030446858
0.002683928
0.0023695381
0.002092352
0.022192827
0.018343146
0.015161051
0.01304042
0.011324682
0.00986666
0.0086029918
0.0075014447
0.0065400205
0.0057007433
0.0049683222
0.0043295452
0.0037728795
0.003288176
0.0028664592
0.0024997881
0.0021811785
0.0019044541
0.0016633929
0.0014498429
0.016589535
0.013708636
0.011350054
0.009747494
0.0084343204
0.0073094576
0.0063304049
0.0054757974
0.0047307253
0.0040825432
0.0035199988
0.0030329192
0.0026120526
0.0022489813
0.0019360852
0.00166653
0.0014342546
0.0012338735
0.0010600663
0.00090666326
0.011723268
0.0097068561
0.0080632735
0.0069131912
0.0059513859
0.0051169968
0.0043861844
0.0037473992
0.0031920725
0.0027121324
0.00229963
0.0019467761
0.0016460744
0.0013904716
0.0011734935
0.00098934154
0.00083292555
0.00069981
0.00058589379
0.00048703427
0.0077301602
0.0064462538
0.0053914165
0.0046164373
0.0039459458
0.0033524191
0.0028278881
0.0023691556
0.0019728823
0.001634541
0.0013485931
0.0011089309
0.0009093241
0.00074378952
0.00060685504
0.00049370825
0.0004002345
0.00032297188
0.00025899179
0.00020573023
0.0047240527
0.0040166717
0.0034116181
0.00292513
0.0024788733
0.0020710863
0.0017063123
0.0013878353
0.0011161284
0.00088901826
0.00070245128
0.00055135586
0.00043036845
0.00033435461
0.00025872402
0.00019956944
0.00015367163
0.00011843939
9.1891554e-05
7.2525247e-05
0.0027936082
0.0024875813
0.0021860402
0.0018948348
0.0016005172
0.0013191177
0.001063852
0.0008422972
0.00065714995
0.00050737924
0.00038957031
0.00029915351
0.00023131937
0.00018159349
0.00014612513
0.00012176981
0.00010604376
9.7041207e-05
9.3441668e-05
9.4359342e-05
0.0019998502
0.0019061284
0.0017592609
0.0015659535
0.0013480984
0.0011312201
0.00093281918
0.00076228305
0.00062287647
0.00051361086
0.00043104293
0.00037072826
0.00032818563
0.00029942476
0.00028115296
0.00027078402
0.00026634713
0.00026638562
0.00026993739
0.00027637005
0.0023735426
0.0022955763
0.0021555546
0.0019611095
0.0017432319
0.0015281063
0.0013326753
0.0011655545
0.0010290507
0.0009213525
0.00083853248
0.0007760226
0.00072948268
0.00069520208
0.00067020704
0.00065220597
0.00063947256
0.00063073359
0.00062508659
0.00062184083
0.082925631
0.069745331
0.057643996
0.049991682
0.043915436
0.038815062
0.034423715
0.030597436
0.027247098
0.024302657
0.021706891
0.019412426
0.017379583
0.015574816
0.01396956
0.012539349
0.011263123
0.010122024
0.0090983383
0.0081818225
0.081870645
0.068790571
0.056827777
0.049263335
0.043263185
0.038227806
0.033892712
0.030116309
0.026810495
0.023905897
0.021345834
0.019083391
0.017079279
0.015300299
0.013718188
0.01230876
0.011051231
0.0099270191
0.0089183082
0.0080152065
0.079718682
0.066900288
0.055236854
0.047860461
0.04201611
0.037112486
0.032890795
0.029213878
0.02599594
0.023169278
0.020678534
0.018477869
0.016528902
0.014799203
0.013261178
0.011891231
0.010669143
0.0095768809
0.0085966877
0.0077188449
0.076507323
0.064120377
0.052917185
0.0458266
0.040213627
0.035504789
0.031450631
0.027920261
0.024831347
0.022118787
0.019729298
0.017618725
0.015750082
0.014092119
0.01261825
0.011305745
0.010135174
0.009089303
0.0081507311
0.0073096159
0.072324224
0.060529704
0.049935953
0.043221839
0.037909639
0.033453308
0.029616347
0.02627575
0.023353676
0.020788461
0.018529582
0.016535126
0.01476996
0.013204388
0.011813139
0.010574598
0.0094702856
0.0084839553
0.0075990667
0.0068055216
0.067288533
0.056232734
0.046380291
0.040122955
0.035172545
0.031019319
0.027443075
0.024330115
0.021607978
0.019219175
0.017116547
0.015260919
0.013619419
0.012164242
0.010871711
0.0097215423
0.0086963375
0.0077809243
0.0069601919
0.006224093
0.061544925
0.051354754
0.042353347
0.036619997
0.032082169
0.028274026
0.02499454
0.022140474
0.01964552
0.017456991
0.015531602
0.013833351
0.012331992
0.011001919
0.0098213096
0.0087714187
0.007836061
0.0070011459
0.006253406
0.0055835162
0.055258358
0.046037439
0.037970966
0.032813515
0.028727292
0.025296336
0.022341057
0.019769559
0.017522302
0.015551902
0.013819381
0.01229227
0.010943273
0.0097492684
0.0086905338
0.0077500937
0.0069131674
0.0061668083
0.005499831
0.0049042995
0.048608109
0.040433563
0.033357492
0.028810863
0.025202343
0.022169919
0.019556944
0.017283403
0.015296989
0.01355602
0.01202616
0.010678777
0.00948979
0.0084388036
0.0075084248
0.0066836757
0.0059514497
0.0053001997
0.0047210882
0.0042076116
0.041781272
0.034702718
0.028641319
0.02472151
0.021602833
0.018978909
0.016716555
0.014747818
0.013027915
0.011521121
0.010197966
0.0090338401
0.0080080391
0.0071030367
0.0063039173
0.0055979088
0.0049740135
0.0044229653
0.0039390372
0.0035160328
0.0072150441
0.0062513258
0.0054343353
0.0047252011
0.0041195485
0.0036008931
0.0031549292
0.0027693837
0.0024342784
0.00214151
0.0018845163
0.00165804
0.0014578622
0.0012805531
0.0011232859
0.00098370097
0.00085980184
0.00074987629
0.00065243839
0.00056618513
0.00048996339
0.00042274445
0.00036360429
0.00031170828
0.0002662993
0.00022668856
0.00019224834
0.00016240631
0.00013664085
0.0001144773
9.5484696e-05
7.9272877e-05
6.54899e-05
5.3819513e-05
4.3978821e-05
3.5715884e-05
2.8807513e-05
2.3056871e-05
1.8291513e-05
1.4360662e-05
1.1134556e-05
8.4986757e-06
6.3618477e-06
4.6292286e-06
3.2627868e-06
2.1384535e-06
1.3585058e-06
6.2641396e-07
8.2220882e-07
1.3709176e-06
0.0070751857
0.0061433732
0.005349717
0.0046585077
0.0040675744
0.0035608022
0.0031240275
0.0027454394
0.0024155691
0.0021267173
0.0018726584
0.001648413
0.001449967
0.0012740307
0.0011178721
0.00097919616
0.00085605022
0.00074675287
0.00064984066
0.00056402783
0.00048817493
0.00042126446
0.00036238182
0.00031070034
0.00026546968
0.00022600683
0.00019168903
0.00016194812
0.00013626607
0.00011417122
9.5235133e-05
7.9069758e-05
6.5324917e-05
5.3685821e-05
4.3870788e-05
3.5628876e-05
2.8737719e-05
2.300116e-05
1.8247311e-05
1.4325857e-05
1.1107416e-05
8.4777867e-06
6.3460566e-06
4.617617e-06
3.2546085e-06
2.1331168e-06
1.3556756e-06
6.2472336e-07
8.1737886e-07
1.3446484e-06
0.0068291208
0.0059547111
0.0052032858
0.0045449575
0.0039804574
0.0034946403
0.003073784
0.002707
0.0023858293
0.0021033726
0.0018540382
0.0016333452
0.001437636
0.001263859
0.0011094392
0.00097218616
0.00085021768
0.00074190122
0.00064580885
0.0005606819
0.00048540247
0.00041897074
0.00036048696
0.00030913708
0.00026418149
0.00022494637
0.00019081678
0.00016123121
0.00013567724
0.00011368793
9.4838787e-05
7.8745048e-05
6.5059247e-05
5.3468832e-05
4.3693961e-05
3.54852e-05
2.8621415e-05
2.290746e-05
1.8172275e-05
1.4266229e-05
1.1060505e-05
8.4413729e-06
6.3183205e-06
4.5970826e-06
3.2400901e-06
2.1236176e-06
1.3507102e-06
6.2173461e-07
8.0772362e-07
1.2933316e-06
0.0064919921
0.0056970261
0.0050055917
0.0043947758
0.0038673375
0.003409972
0.0030102166
0.0026587211
0.0023485935
0.0020741646
0.0018307426
0.0016144997
0.0014222287
0.001251172
0.0010989458
0.00096348696
0.00084300027
0.00073591445
0.00064084684
0.00055657372
0.00048200522
0.00041616452
0.00035817115
0.0003072274
0.00026260752
0.00022364947
0.00018974826
0.00016035082
0.00013495178
0.00011309009
9.4346166e-05
7.8339271e-05
6.4725253e-05
5.3194275e-05
4.3468695e-05
3.5300875e-05
2.8471139e-05
2.2785526e-05
1.8073945e-05
1.4187564e-05
1.0998225e-05
8.3927492e-06
6.281099e-06
4.5694173e-06
3.2204852e-06
2.1108089e-06
1.3440381e-06
6.1780805e-07
7.9323493e-07
1.2195914e-06
0.0060786498
0.0053821935
0.0047674688
0.0042183522
0.0037373669
0.0033140849
0.0029388369
0.0026046988
0.0023069034
0.0020414031
0.0018046006
0.0015933873
0.0014050305
0.0012370831
0.0010873648
0.00095395009
0.00083514115
0.00072943798
0.00063551191
0.00055218153
0.00047839104
0.00041319159
0.00035572591
0.00030521571
0.00026095161
0.00022228526
0.00018862313
0.0001594217
0.00013418352
0.00011245408
9.3819129e-05
7.7902292e-05
6.4362941e-05
5.2894079e-05
4.3220344e-05
3.5095928e-05
2.8302617e-05
2.2647633e-05
1.796184e-05
1.4097185e-05
1.0926158e-05
8.336124e-06
6.2375177e-06
4.5368963e-06
3.1973826e-06
2.0957675e-06
1.3361853e-06
6.1340564e-07
7.7404719e-07
1.1272835e-06
0.0056017363
0.0050209773
0.0044986642
0.0040241167
0.0035972146
0.0032116412
0.002862675
0.0025469618
0.002262254
0.0020063103
0.0017766979
0.0015710164
0.0013869885
0.0012224755
0.0010755095
0.00094431503
0.00082730455
0.0007230618
0.00063032289
0.00054795753
0.00047495092
0.00041038752
0.00035343728
0.00030334433
0.00025941779
0.00022102455
0.00018758359
0.00015856161
0.00013346948
0.0001118594
9.3322495e-05
7.7486692e-05
6.401474e-05
5.2602306e-05
4.2976102e-05
3.4891948e-05
2.8132888e-05
2.2507142e-05
1.7846359e-05
1.4003124e-05
1.0850451e-05
8.2761447e-06
6.1910334e-06
4.5020377e-06
3.1725324e-06
2.0796725e-06
1.3277034e-06
6.090204e-07
7.5037733e-07
1.0210877e-06
0.0050735862
0.0046241368
0.0042078471
0.0038171421
0.0034490441
0.0031030694
0.0027813925
0.0024851434
0.0022146192
0.0019692335
0.0017476521
0.0015481655
0.0013689537
0.0012082086
0.001064206
0.00093535041
0.00082018959
0.00071741115
0.0006258316
0.0005443835
0.00047210165
0.00040810998
0.00035161
0.0003018712
0.00025822306
0.00022004883
0.00018678059
0.00015789544
0.00013291244
0.0001113902
9.2924841e-05
7.7148063e-05
6.3725491e-05
5.2354935e-05
4.2764689e-05
3.4711727e-05
2.7979934e-05
2.2378146e-05
1.7738471e-05
1.3913842e-05
1.0777564e-05
8.2176806e-06
6.1452517e-06
4.4674497e-06
3.1477281e-06
2.0637164e-06
1.3191216e-06
6.051263e-07
7.2251767e-07
9.0606625e-07
0.0045095985
0.0042039611
0.0039016655
0.003596686
0.0032882495
0.0029835598
0.0026914367
0.0024171397
0.002163137
0.001930202
0.0017180269
0.0015256684
0.0013518655
0.0011952285
0.0010543502
0.00092787302
0.00081452265
0.00071312073
0.00062258542
0.00054192672
0.00047023884
0.00040669158
0.00035052202
0.00030102729
0.00025755839
0.00021951526
0.00018634287
0.00015752815
0.0001325976
0.00011111537
9.2681576e-05
7.6930781e-05
6.3530567e-05
5.2180028e-05
4.2608248e-05
3.4572648e-05
2.7857319e-05
2.2271164e-05
1.7646269e-05
1.3835519e-05
1.0712166e-05
8.1642173e-06
6.1027236e-06
4.4349571e-06
3.1241909e-06
2.0486973e-06
1.3107087e-06
6.0203818e-07
6.9079715e-07
7.8730017e-07
0.0039250822
0.0037656896
0.0035730586
0.0033467356
0.0030974419
0.0028389217
0.0025825095
0.0023356233
0.0021025122
0.0018853185
0.0016848879
0.0015012519
0.0013339158
0.0011820682
0.0010447346
0.00092087915
0.00080946507
0.00070948883
0.000619998
0.00054009884
0.00046895757
0.00040579829
0.00034989925
0.00030058891
0.00025724215
0.00021927705
0.00018615229
0.00015736504
0.00013244929
0.00011097459
9.2544772e-05
7.6796855e-05
6.3399928e-05
5.20539e-05
4.2488171e-05
3.4460154e-05
2.7753719e-05
2.2177448e-05
1.7563063e-05
1.3763095e-05
1.0650489e-05
8.1130009e-06
6.0614808e-06
4.4031931e-06
3.1009781e-06
2.0340069e-06
1.3019354e-06
5.9962117e-07
6.5570348e-07
6.7000592e-07
0.0033435622
0.0032958677
0.0031907478
0.0030383117
0.0028544779
0.0026523761
0.002441614
0.0022302394
0.0020242773
0.0018275934
0.0016424799
0.0014701919
0.0013112316
0.0011655554
0.0010327641
0.00091224947
0.00080328947
0.00070511139
0.00061693204
0.00053798233
0.000467521
0.00040484129
0.00034927358
0.00030018587
0.00025698314
0.00021910638
0.00018603159
0.00015726891
0.00013236194
0.00011088708
9.245298e-05
7.6699853e-05
6.3298754e-05
5.1950667e-05
4.2385416e-05
3.4360411e-05
2.7659243e-05
2.2090069e-05
1.7484126e-05
1.3693458e-05
1.0590584e-05
8.0628878e-06
6.0209241e-06
4.3718783e-06
3.0780005e-06
2.0195601e-06
1.2927376e-06
5.9774312e-07
6.1856395e-07
5.5968573e-07
0.0027111263
0.0027276614
0.0026937199
0.0026120268
0.0024974312
0.0023595137
0.002204887
0.0020407221
0.0018736265
0.0017084636
0.0015485916
0.0013963296
0.0012531646
0.0011199026
0.00099684933
0.00088396804
0.00078099366
0.00068751356
0.00060302619
0.00052698193
0.00045881018
0.00039793696
0.00034379613
0.00029583648
0.0002535263
0.00021635628
0.00018384152
0.00015552304
0.00013096874
0.00010977427
9.156343e-05
7.5988403e-05
6.2729669e-05
5.1495631e-05
4.2021947e-05
3.4070617e-05
2.7428842e-05
2.1907625e-05
1.7340449e-05
1.3581159e-05
1.0503675e-05
7.9966271e-06
5.9712729e-06
4.33617e-06
3.0527588e-06
2.0048813e-06
1.2821945e-06
5.9658723e-07
5.7983465e-07
4.6251034e-07
0.0021017627
0.0021541341
0.0021648928
0.0021337018
0.0020723173
0.0019877639
0.0018839767
0.0017664674
0.0016411398
0.0015126496
0.0013844708
0.0012592762
0.0011390345
0.0010250692
0.00091818945
0.00081882413
0.00072712252
0.00064303145
0.00056635597
0.00049680527
0.0004340259
0.00037762546
0.0003271895
0.0002822936
0.0002425121
0.00020742458
0.00017662071
0.00014970409
0.00012629523
0.00010603389
8.8580867e-05
7.3619319e-05
6.0855589e-05
5.0019618e-05
4.0864951e-05
3.316839e-05
2.6729346e-05
2.1368865e-05
1.6928636e-05
1.3269253e-05
1.0270011e-05
7.8241922e-06
5.8460955e-06
4.2484272e-06
2.9920832e-06
1.9686095e-06
1.2565495e-06
5.9047612e-07
5.3020507e-07
3.6994933e-07
0.0015775319
0.0016536718
0.0016957194
0.0017033411
0.0016836757
0.0016418372
0.0015802568
0.0015028495
0.0014144677
0.0013192684
0.0012205533
0.0011210547
0.0010229707
0.00092794959
0.00083716043
0.0007513932
0.00067113946
0.00059665747
0.00052802811
0.00046520062
0.00040802802
0.00035629413
0.0003097342
0.0002680506
0.00023092499
0.00019802763
0.00016902488
0.00014358508
0.00012138338
0.00010210559
8.5451264e-05
7.1136074e-05
5.8893583e-05
4.8476446e-05
3.96571e-05
3.2228004e-05
2.6001489e-05
2.0809238e-05
1.6501637e-05
1.2946426e-05
1.0028586e-05
7.646339e-06
5.7171412e-06
4.1582043e-06
2.9294977e-06
1.9314949e-06
1.2290183e-06
5.851637e-07
4.7610656e-07
2.8285099e-07
0.0011369073
0.0012254909
0.0012868261
0.0013213926
0.0013323282
0.0013230104
0.0012950317
0.001250944
0.0011943433
0.0011286511
0.00105678
0.00098128099
0.00090434914
0.00082776252
0.00075289713
0.00068078624
0.0006121762
0.00054757468
0.00048729591
0.00043150114
0.00038023238
0.00033343951
0.00029100238
0.00025274844
0.00021846701
0.00018792073
0.00016085498
0.00013700555
0.000116105
9.7887849e-05
8.20949e-05
6.8476607e-05
5.6795769e-05
4.6829514e-05
3.837069e-05
3.1228701e-05
2.5229892e-05
2.0217485e-05
1.6051311e-05
1.2606867e-05
9.7753119e-06
7.4602054e-06
5.5824577e-06
4.0640775e-06
2.8641204e-06
1.8926044e-06
1.1994064e-06
5.7976411e-07
4.2144735e-07
2.0805244e-07
0.00078251069
0.00087187022
0.0009414223
0.00099163234
0.001022698
0.0010363206
0.0010334445
0.0010155591
0.00098503161
0.00094441607
0.00089608422
0.00084223353
0.00078486622
0.00072571348
0.00066620764
0.00060750183
0.00055049925
0.00049588217
0.00044414297
0.00039561539
0.00035050285
0.00030890296
0.00027082848
0.00023622506
0.0002049862
0.00017696574
0.00015198844
0.00012985883
0.00011036872
9.3303492e-05
7.8447376e-05
6.558776e-05
5.4518693e-05
4.5043623e-05
3.6977447e-05
3.0147957e-05
2.4396749e-05
1.9579641e-05
1.5566792e-05
1.224219e-05
9.5037789e-06
7.2609314e-06
5.4384176e-06
3.9633243e-06
2.7940341e-06
1.8504028e-06
1.1669696e-06
5.7330015e-07
3.6845134e-07
1.4913766e-07
0.00051109225
0.00059183579
0.00066027728
0.00071624621
0.00075807988
0.00078600916
0.00080030383
0.00080161501
0.00079125624
0.0007709042
0.00074230532
0.00070719502
0.00066725128
0.0006240178
0.00057885166
0.00053291017
0.00048715553
0.00044236506
0.00039914692
0.00035795964
0.00031913262
0.00028288542
0.00024934559
0.0002185647
0.00019053243
0.00016518904
0.00014243613
0.00012214604
0.00010416998
8.8345014e-05
7.4500065e-05
6.2460913e-05
5.2054399e-05
4.3111798e-05
3.5471489e-05
2.8980955e-05
2.349821e-05
1.8892686e-05
1.5045747e-05
1.1850607e-05
9.2126195e-06
7.0474558e-06
5.2841997e-06
3.8552481e-06
2.7187269e-06
1.8042994e-06
1.1315793e-06
5.6506519e-07
3.1895147e-07
1.073493e-07
0.00031384999
0.00038019943
0.00044079333
0.00049476763
0.00053956274
0.00057435356
0.00059875807
0.00061275062
0.00061680693
0.0006118142
0.00059888415
0.00057924349
0.00055416948
0.00052492048
0.00049267515
0.00045849665
0.00042331686
0.00038793067
0.00035299742
0.00031904839
0.00028649797
0.00025565619
0.00022674176
0.00019989482
0.00017518894
0.00015264229
0.00013222776
0.00011388212
9.7514184e-05
8.3012041e-05
7.024939e-05
5.9091016e-05
4.9397456e-05
4.1028881e-05
3.3848269e-05
2.7723898e-05
2.2531234e-05
1.8154265e-05
1.4486404e-05
1.1430812e-05
8.9008829e-06
6.8190762e-06
5.1192822e-06
3.7394061e-06
2.6378959e-06
1.7538798e-06
1.0933061e-06
5.5441792e-07
2.7437038e-07
8.1715939e-08
0.00017938551
0.00022888015
0.00027762114
0.00032430028
0.0003661769
0.00040184547
0.00043042407
0.00045137374
0.00046454996
0.00047019668
0.0004688478
0.00046123207
0.0004482057
0.00043069037
0.00040961603
0.00038587704
0.00036030176
0.00033363399
0.00030652304
0.0002795206
0.00025308261
0.00022757444
0.00020327816
0.00018040093
0.00015908392
0.00013941113
0.0001214181
0.00010509999
9.0419255e-05
7.7312557e-05
6.5697092e-05
5.5476164e-05
4.654409e-05
3.879039e-05
3.2103313e-05
2.6372716e-05
2.1492344e-05
1.7361548e-05
1.3886541e-05
1.0981113e-05
8.567311e-06
6.5748682e-06
4.9429982e-06
3.6152881e-06
2.5512229e-06
1.6987937e-06
1.0523074e-06
5.4085611e-07
2.3555196e-07
6.9299246e-08
9.5777523e-05
0.00012837008
0.00016359434
0.00019999128
0.00023506844
0.00026724047
0.00029535427
0.00031854514
0.00033625559
0.00034825799
0.00035461446
0.00035561342
0.00035171404
0.00034349573
0.00033160872
0.00031673105
0.00029953436
0.00028065718
0.00026068647
0.00024014628
0.00021949189
0.00019910799
0.00017931008
0.00016034802
0.00014241117
0.00012563432
0.00011010406
9.5865422e-05
8.2928254e-05
7.1273483e-05
6.0858925e-05
5.1624651e-05
4.3497823e-05
3.6396972e-05
3.0235691e-05
2.4925759e-05
2.0379695e-05
1.6512793e-05
1.3244671e-05
1.0500325e-05
8.2110133e-06
6.3141928e-06
4.754915e-06
3.4826072e-06
2.4585852e-06
1.6389378e-06
1.0089028e-06
5.2418432e-07
2.0280936e-07
6.5947725e-08
5.1781085e-05
6.8956759e-05
9.0743711e-05
0.00011575258
0.00014193902
0.00016780935
0.00019216192
0.00021399522
0.00023252737
0.00024723096
0.00025782802
0.00026425804
0.00026664185
0.00026524578
0.00026044442
0.00025268383
0.00024244896
0.0002302361
0.00021653032
0.00020178851
0.00018642786
0.00017081849
0.00015527963
0.00014007857
0.00012543175
0.00011150749
9.8429726e-05
8.6282509e-05
7.5114855e-05
6.4945766e-05
5.5769206e-05
4.7558889e-05
4.0272759e-05
3.3857099e-05
2.8250189e-05
2.33855e-05
1.9194396e-05
1.5608368e-05
1.2560812e-05
9.9883483e-06
7.8318919e-06
6.0370116e-06
4.5550677e-06
3.3414709e-06
2.3601762e-06
1.5745432e-06
9.6358466e-07
5.045692e-07
1.7604334e-07
6.7321764e-08
3.7513603e-05
4.156823e-05
5.1125203e-05
6.4989716e-05
8.1616301e-05
9.9749527e-05
0.00011830215
0.00013629293
0.00015287347
0.00016737025
0.00017929954
0.00018835938
0.0001944131
0.00019746929
0.00019765805
0.00019520454
0.00019040212
0.00018358766
0.00017511971
0.00016535979
0.00015465748
0.00014333945
0.00013170167
0.00012000453
0.0001084703
9.72827e-05
8.658784e-05
7.6496416e-05
6.7086668e-05
5.8407882e-05
5.0484195e-05
4.3318495e-05
3.6896281e-05
3.1189339e-05
2.615916e-05
2.1760013e-05
1.7941648e-05
1.4651604e-05
1.1837116e-05
9.4466166e-06
7.43096e-06
5.7441028e-06
4.3441028e-06
3.1924719e-06
2.2565594e-06
1.5061981e-06
9.1699635e-07
4.8252297e-07
1.548753e-07
6.9848539e-08
4.4725853e-05
3.8233187e-05
3.7371877e-05
4.1186139e-05
4.8595415e-05
5.8634535e-05
7.0420056e-05
8.3096759e-05
9.5866371e-05
0.0001080321
0.00011902333
0.00012840271
0.00013586495
0.0001412309
0.0001444366
0.00014551789
0.00014459217
0.0001418393
0.00013748315
0.00013177452
0.00012497596
0.00011734907
0.00010914451
0.00010059445
9.1907275e-05
8.3264366e-05
7.4818544e-05
6.6693941e-05
5.898699e-05
5.1768239e-05
4.5084764e-05
3.8962964e-05
3.341155e-05
2.8424583e-05
2.3984427e-05
2.0064539e-05
1.6632002e-05
1.364977e-05
1.1078595e-05
8.8786228e-06
7.0107013e-06
5.437295e-06
4.123419e-06
3.036755e-06
2.1486864e-06
1.4348123e-06
8.6987246e-07
4.5879649e-07
1.38716e-07
7.128464e-08
6.6791497e-05
5.2256009e-05
4.30022e-05
3.8304876e-05
3.7473479e-05
3.9824837e-05
4.4706906e-05
5.1443531e-05
5.9358451e-05
6.7817259e-05
7.6254764e-05
8.4189251e-05
9.1230803e-05
9.7085572e-05
0.00010155522
0.00010453143
0.00010598648
0.00010596133
0.00010455235
0.00010189782
9.8164802e-05
9.3537129e-05
8.8204774e-05
8.2355155e-05
7.6166157e-05
6.9800962e-05
6.3404456e-05
5.7101131e-05
5.0994203e-05
4.5165762e-05
3.9677723e-05
3.4573374e-05
2.9879348e-05
2.560784e-05
2.1758936e-05
1.8322936e-05
1.5282568e-05
1.2615044e-05
1.0293881e-05
8.2904824e-06
6.5754716e-06
5.119734e-06
3.8953282e-06
2.8760929e-06
2.0379178e-06
1.3615742e-06
8.2299262e-07
4.3425518e-07
1.2680262e-07
7.0758094e-08
9.8547961e-05
7.8209595e-05
6.2543707e-05
5.1020778e-05
4.3252178e-05
3.8796583e-05
3.7219778e-05
3.8035482e-05
4.0721248e-05
4.4754155e-05
4.9635972e-05
5.4908874e-05
6.0167784e-05
6.5070396e-05
6.9343504e-05
7.2785005e-05
7.5261965e-05
7.6705577e-05
7.7103828e-05
7.649262e-05
7.4946121e-05
7.2566965e-05
6.9476849e-05
6.5807978e-05
6.1695663e-05
5.727216e-05
5.2661835e-05
4.7977583e-05
4.3318452e-05
3.8768314e-05
3.4395438e-05
3.0252798e-05
2.6378958e-05
2.2799371e-05
1.9527957e-05
1.6568829e-05
1.3918062e-05
1.1565418e-05
9.4959601e-06
7.69151e-06
6.1319258e-06
4.7961787e-06
3.6632431e-06
2.7129803e-06
1.9260521e-06
1.287907e-06
7.7714761e-07
4.0975445e-07
1.182285e-07
6.8383937e-08
0.00013607336
0.00011182226
9.1529036e-05
7.4817264e-05
6.1515675e-05
5.1372759e-05
4.4136876e-05
3.9494898e-05
3.7079813e-05
3.6498621e-05
3.7352708e-05
3.9251479e-05
4.1824689e-05
4.4734274e-05
4.7684045e-05
5.0426234e-05
5.2764842e-05
5.4556104e-05
5.5706474e-05
5.6168527e-05
5.5935325e-05
5.5033773e-05
5.3517516e-05
5.1459804e-05
4.8946738e-05
4.6071175e-05
4.2927449e-05
3.9607043e-05
3.6195208e-05
3.2768534e-05
2.9393383e-05
2.6125088e-05
2.3007801e-05
2.0074865e-05
1.7349587e-05
1.4846289e-05
1.2571526e-05
1.0525386e-05
8.7027935e-06
7.0947413e-06
5.6894353e-06
4.4733145e-06
3.4318946e-06
2.5507666e-06
1.8153964e-06
1.2154739e-06
7.3316101e-07
3.8607771e-07
1.1203871e-07
6.473173e-08
0.00017645374
0.00014981593
0.00012641472
0.00010598712
8.8507033e-05
7.3861253e-05
6.1938171e-05
5.2567097e-05
4.5519163e-05
4.0527733e-05
3.7303273e-05
3.5543269e-05
3.4942228e-05
3.5202546e-05
3.6044696e-05
3.7215576e-05
3.8494729e-05
3.9698401e-05
4.0681487e-05
4.1337465e-05
4.1596551e-05
4.1422431e-05
4.0807945e-05
3.9770142e-05
3.8345034e-05
3.6582416e-05
3.4540981e-05
3.2283941e-05
2.9875277e-05
2.7376677e-05
2.4845204e-05
2.2331638e-05
1.9879456e-05
1.7524368e-05
1.5294305e-05
1.3209783e-05
1.1284526e-05
9.526275e-06
7.9376913e-06
6.5173009e-06
5.2604163e-06
4.1600244e-06
3.2075411e-06
2.3938008e-06
1.7088599e-06
1.1462198e-06
6.919483e-07
3.6393058e-07
1.0737898e-07
6.0408272e-08
0.00021757089
0.00018973357
0.00016446158
0.00014157322
0.00012113092
0.00010311531
8.75139e-05
7.4263731e-05
6.3247724e-05
5.4308912e-05
4.7260314e-05
4.1890932e-05
3.7972533e-05
3.5268082e-05
3.3540549e-05
3.2560997e-05
3.2115579e-05
3.201127e-05
3.2080147e-05
3.2182101e-05
3.2205978e-05
3.206926e-05
3.1716501e-05
3.1116784e-05
3.0260459e-05
2.9155456e-05
2.7823432e-05
2.6295991e-05
2.4611147e-05
2.281018e-05
2.0934955e-05
1.9025774e-05
1.7119741e-05
1.5249643e-05
1.3443275e-05
1.1723164e-05
1.0106617e-05
8.6060147e-06
7.2292829e-06
5.9804843e-06
4.8604644e-06
3.8675387e-06
2.9981079e-06
2.2475489e-06
1.6100496e-06
1.0824424e-06
6.5460694e-07
3.4399132e-07
1.0365803e-07
5.5875366e-08
0.00025792193
0.00022977672
0.00020360343
0.00017927751
0.00015690865
0.0001365362
0.00011821204
0.00010194843
8.7711803e-05
7.5432362e-05
6.501008e-05
5.6317371e-05
4.9202753e-05
4.3496434e-05
3.9016856e-05
3.5577281e-05
3.2992106e-05
3.1082704e-05
2.9682537e-05
2.8641296e-05
2.7827918e-05
2.7132411e-05
2.6466541e-05
2.5763472e-05
2.4976518e-05
2.4077193e-05
2.3052764e-05
2.190352e-05
2.0639945e-05
1.9279959e-05
1.7846354e-05
1.6364522e-05
1.4860547e-05
1.335967e-05
1.1885144e-05
1.0457452e-05
9.0938495e-06
7.8081814e-06
6.6109281e-06
5.5094221e-06
4.5081856e-06
3.6093684e-06
2.813181e-06
2.1186198e-06
1.5233124e-06
1.0268466e-06
6.2249033e-07
3.2697505e-07
1.0063813e-07
5.1444945e-08
0.0002964723
0.00026866364
0.00024232063
0.00021735898
0.00019390729
0.00017203785
0.00015183988
0.00013337362
0.00011666311
0.00010170264
8.8459967e-05
7.6876627e-05
6.6869122e-05
5.8331905e-05
5.1141547e-05
4.5161325e-05
4.0246079e-05
3.6247137e-05
3.3017134e-05
3.041441e-05
2.830681e-05
2.6574705e-05
2.5113174e-05
2.3833298e-05
2.2662613e-05
2.1544796e-05
2.0438701e-05
1.9316897e-05
1.8163849e-05
1.6973902e-05
1.574921e-05
1.4497716e-05
1.3231285e-05
1.1964061e-05
1.071108e-05
9.4871677e-06
8.3061152e-06
7.1801105e-06
6.1194076e-06
5.1321927e-06
4.2246105e-06
3.4009333e-06
2.6637815e-06
2.0146424e-06
1.453681e-06
9.8254408e-07
5.9723701e-07
3.136834e-07
9.8422187e-08
4.7332414e-08
0.00033253903
0.00030551057
0.0002795271
0.00025453318
0.00023065828
0.00020798981
0.00018663471
0.0001666802
0.00014818656
0.00013119146
0.00011571149
0.00010174101
8.925164e-05
7.819323e-05
6.8496001e-05
6.007319e-05
5.2824211e-05
4.6638204e-05
4.1397868e-05
3.6983311e-05
3.3275759e-05
3.0160899e-05
2.7531756e-05
2.5290971e-05
2.3352433e-05
2.164225e-05
2.0099084e-05
1.8673918e-05
1.7329338e-05
1.6038459e-05
1.4783576e-05
1.3554691e-05
1.2347979e-05
1.1164312e-05
1.0007887e-05
8.8850187e-06
7.8031222e-06
6.7699003e-06
5.7927309e-06
4.8782466e-06
4.0320842e-06
3.2587966e-06
2.5618539e-06
1.9439384e-06
1.4066792e-06
9.5295899e-07
5.8072441e-07
3.0501107e-07
9.7351816e-08
4.3690469e-08
0.00036569944
0.00033973507
0.00031447338
0.00028988042
0.00026607585
0.00024315072
0.00022121644
0.00020037207
0.00018069778
0.0001622578
0.00014510097
0.0001292589
0.00011474446
0.00010155146
8.9655238e-05
7.9013724e-05
6.9569075e-05
6.1249779e-05
5.397325e-05
4.7648697e-05
4.2180171e-05
3.7469584e-05
3.3419606e-05
2.9936271e-05
2.693121e-05
2.4323418e-05
2.2040528e-05
2.0019575e-05
1.8207283e-05
1.6559912e-05
1.5042753e-05
1.3629342e-05
1.2300474e-05
1.1043114e-05
9.849272e-06
8.714903e-06
7.638895e-06
6.622169e-06
5.666921e-06
4.7760136e-06
3.9525186e-06
3.1994162e-06
2.5193961e-06
1.9149385e-06
1.3879474e-06
9.4161144e-07
5.7493667e-07
3.0189959e-07
9.787469e-08
4.0618018e-08
0.00039571899
0.00037097763
0.0003466652
0.00032276458
0.00029938014
0.00027659975
0.00025453095
0.00023327455
0.00021291894
0.00019354219
0.00017521212
0.00015798427
0.00014189996
0.00012698524
0.00011325047
0.00010069027
8.9283974e-05
7.8996497e-05
6.9779712e-05
6.1574249e-05
5.4311612e-05
4.7916503e-05
4.2309264e-05
3.7408303e-05
3.3132399e-05
2.9402777e-05
2.614489e-05
2.3289838e-05
2.077539e-05
1.8546633e-05
1.6556224e-05
1.4764335e-05
1.3138298e-05
1.1652046e-05
1.0285396e-05
9.023246e-06
7.8547421e-06
6.7724609e-06
5.7716525e-06
4.8495686e-06
4.0048966e-06
3.2373178e-06
2.5471575e-06
1.9352858e-06
1.4026499e-06
9.5175226e-07
5.8173875e-07
3.0523538e-07
1.0042508e-07
3.8164999e-08
0.00042249554
0.00039903953
0.00037579681
0.00035276438
0.00033002914
0.00030767211
0.00028579239
0.00026448628
0.00024384267
0.00022394457
0.00020486892
0.00018668471
0.000169451
0.00015321554
0.00013801384
0.00012386844
0.00011078851
9.8769821e-05
8.7795174e-05
7.7835171e-05
6.8849418e-05
6.0788007e-05
5.3593274e-05
4.7201705e-05
4.1545942e-05
3.6556757e-05
3.2164935e-05
2.8302972e-05
2.490653e-05
2.1915615e-05
1.9275439e-05
1.6936981e-05
1.4857255e-05
1.2999306e-05
1.1331996e-05
9.8296152e-06
8.4713611e-06
7.240758e-06
6.1250372e-06
5.1145343e-06
4.2021252e-06
3.382738e-06
2.6529224e-06
2.0106283e-06
1.4546595e-06
9.8584443e-07
6.0256067e-07
3.1569677e-07
1.0533273e-07
3.634216e-08
0.00044601129
0.00042382883
0.00040169224
0.00037961099
0.0003576544
0.00033589526
0.00031442207
0.00029332331
0.00027268374
0.0002525855
0.00023310787
0.00021432567
0.00019630745
0.00017911409
0.00016279764
0.00014740027
0.00013295339
0.00011947703
0.00010697959
9.5457805e-05
8.489719e-05
7.5272697e-05
6.6549746e-05
5.8685478e-05
5.163024e-05
4.5329182e-05
3.9723937e-05
3.4754267e-05
3.0359649e-05
2.6480695e-05
2.3060391e-05
2.0045107e-05
1.7385355e-05
1.5036305e-05
1.2958062e-05
1.1115736e-05
9.4793215e-06
8.0234467e-06
6.7270121e-06
5.57277e-06
4.546876e-06
3.6384528e-06
2.8391646e-06
2.1429428e-06
1.545412e-06
1.0448245e-06
6.3795518e-07
3.3353266e-07
1.1273796e-07
3.5129941e-08
0.00046630126
0.00044532394
0.00042426424
0.00040314338
0.00038201408
0.00036094075
0.00034000097
0.00031927405
0.00029883825
0.00027877151
0.00025915123
0.00024005293
0.0002215488
0.0002037064
0.00018658747
0.00017024681
0.00015473117
0.00014007835
0.00012631645
0.00011346339
0.00010152669
9.0503506e-05
8.0380993e-05
7.1136922e-05
6.2740559e-05
5.5153767e-05
4.8332283e-05
4.2227099e-05
3.678591e-05
3.195454e-05
2.7678318e-05
2.3903317e-05
2.0577452e-05
1.7651379e-05
1.5079204e-05
1.2818971e-05
1.083297e-05
9.0878552e-06
7.554614e-06
6.2084184e-06
5.028381e-06
3.9972638e-06
3.1011394e-06
2.3291482e-06
1.672943e-06
1.1274792e-06
6.8723054e-07
3.583857e-07
1.2254636e-07
3.4485687e-08
0.00048340521
0.00046352006
0.00044345582
0.00042324509
0.00040292556
0.000382554
0.00036219777
0.00034192706
0.00032181283
0.0003019273
0.00028234367
0.00026313519
0.00024437389