/*--------------------------------*- C++ -*----------------------------------*\
  =========                 |
  \\      /  F ield         | OpenFOAM: The Open Source CFD Toolbox
   \\    /   O peration     | Website:  https://openfoam.org
    \\  /    A nd           | Version:  6
     \\/     M anipulation  |
\*---------------------------------------------------------------------------*/
FoamFile
{
    version     2.0;
    format      ascii;
    class       volVectorField;
    location    "322";
    object      UMean;
}
// * * * * * * * * * * * * * * * * * * * * * * * * * * * * * * * * * * * * * //

dimensions      [0 1 -1 0 0 0 0];

internalField   nonuniform List<vector> 
9200
(
(0.0014676341 0.0010923335 -6.0332035e-20)
(0.015099924 -0.0030908121 4.7533459e-20)
(0.040822923 -0.0075026588 -3.9395944e-20)
(0.075934479 -0.011921759 -6.2148546e-20)
(0.11858074 -0.016114951 1.9338052e-20)
(0.16752301 -0.019645992 3.3777581e-20)
(0.22167924 -0.022226015 -1.2640568e-20)
(0.28005011 -0.023710018 9.5584315e-21)
(0.34170114 -0.024039713 1.7507712e-20)
(0.40573105 -0.02322041 1.5473069e-21)
(0.47124839 -0.021309703 -2.239605e-20)
(0.53736269 -0.0184065 2.1540228e-20)
(0.60318754 -0.014640108 -4.2066722e-20)
(0.66785342 -0.010159139 -2.2069789e-20)
(0.73052869 -0.0051197151 6.1668256e-21)
(0.7904462 0.0003242044 -2.6290393e-20)
(0.8469486 0.0060439727 2.6405632e-20)
(0.89961116 0.012083348 2.338297e-20)
(0.94805898 0.0185723 -2.7399688e-22)
(0.98962089 0.022167728 -1.6197973e-21)
(0.0058058426 -0.0017150261 -1.7382447e-20)
(0.02872072 -0.010104748 4.0909339e-20)
(0.064683753 -0.016538695 2.3980194e-20)
(0.11058561 -0.021413457 -1.1888188e-19)
(0.16426701 -0.024899324 -1.3034861e-20)
(0.22423121 -0.026791408 7.5596506e-20)
(0.28912972 -0.027001111 -3.658607e-20)
(0.35768453 -0.025569729 -8.6955547e-21)
(0.42867651 -0.022609242 3.5564756e-20)
(0.5009222 -0.018283354 -4.4936227e-20)
(0.57326294 -0.012799651 -3.163184e-20)
(0.64457205 -0.0063992127 7.5061468e-20)
(0.71377525 0.00065515456 3.9906665e-20)
(0.77987969 0.0080905622 -7.0919496e-20)
(0.84200745 0.015633985 1.5256723e-20)
(0.89942785 0.023016921 -3.8326934e-20)
(0.95159754 0.029989346 -1.4471746e-20)
(0.99825901 0.036392568 7.4006142e-20)
(1.0393094 0.041816879 3.1410603e-20)
(1.0729921 0.043149426 -8.4611948e-20)
(0.011547227 -0.0044362756 3.7247575e-20)
(0.046061406 -0.016584465 2.3880961e-21)
(0.094041318 -0.024304855 2.2577302e-20)
(0.15202353 -0.028734106 1.0054056e-21)
(0.21755313 -0.03053136 -4.1515048e-20)
(0.28885018 -0.029787299 1.9229455e-20)
(0.3642651 -0.026673954 1.3672362e-20)
(0.44220888 -0.021476681 -5.1936274e-20)
(0.52115805 -0.014530712 5.9268467e-20)
(0.59965072 -0.0062038642 1.4958161e-20)
(0.67629732 0.0031110939 -5.6531314e-20)
(0.74980925 0.013010042 -1.9064075e-20)
(0.819037 0.023093959 9.2359293e-21)
(0.88301 0.032985129 2.4395263e-20)
(0.94097128 0.042341016 -1.1804029e-20)
(0.99240017 0.050863176 2.8959747e-20)
(1.0370247 0.058311302 -2.1028239e-20)
(1.0748512 0.064550316 -7.2577738e-20)
(1.106041 0.069313282 -2.4166621e-20)
(1.1297678 0.070728819 4.9979236e-20)
(0.018787369 -0.0068229465 2.4739331e-20)
(0.067239054 -0.021835914 5.1909236e-20)
(0.12888094 -0.029763839 2.0292407e-20)
(0.19997037 -0.03260725 1.3468977e-20)
(0.27777507 -0.031601165 1.7848505e-20)
(0.36021523 -0.027201114 -4.9089361e-20)
(0.44532388 -0.019903723 -2.6462187e-20)
(0.53120131 -0.010295391 0)
(0.61604872 0.001019648 1.4925975e-20)
(0.69819326 0.013439098 -6.3892276e-21)
(0.77612514 0.026373926 -1.0148816e-19)
(0.84854588 0.039267926 -1.6239441e-20)
(0.91441553 0.051619649 6.7598229e-20)
(0.97298908 0.063001704 4.7960274e-22)
(1.0238352 0.073074838 -1.627952e-21)
(1.0668328 0.081594781 2.2696338e-20)
(1.1021472 0.088418917 -5.349789e-21)
(1.1302053 0.093534726 -6.3035107e-20)
(1.1515776 0.096918913 -4.7344087e-20)
(1.166254 0.09762301 7.0805462e-20)
(0.027552446 -0.0085934839 -3.8677558e-21)
(0.092150967 -0.025109935 -4.9216663e-21)
(0.16880885 -0.031844282 5.7542473e-20)
(0.2536117 -0.031772858 1.9097917e-20)
(0.34358968 -0.026788965 -3.2977559e-20)
(0.4363726 -0.017782454 1.2325158e-20)
(0.52969969 -0.0056341602 2.7220475e-21)
(0.62141646 0.0087239799 3.4871782e-20)
(0.70954633 0.024394953 5.8576454e-21)
(0.79234818 0.040543069 -1.3831073e-20)
(0.86837486 0.056410972 6.2558555e-20)
(0.93652778 0.071344064 -5.9895808e-20)
(0.99609379 0.084813351 -1.3663481e-19)
(1.046756 0.096430267 -5.759662e-21)
(1.0885754 0.10595124 8.5697181e-20)
(1.1219452 0.11327138 0)
(1.1475241 0.11841361 1.0500551e-20)
(1.1661669 0.12153156 -1.5831352e-20)
(1.1788093 0.1228084 -8.9277033e-21)
(1.1860219 0.12185787 2.1378895e-20)
(0.037778935 -0.0094435941 -5.2384519e-21)
(0.12044352 -0.025644894 4.4162644e-21)
(0.21304206 -0.029525012 -8.9056379e-21)
(0.31163469 -0.025118397 2.8836407e-20)
(0.4130893 -0.015042244 -3.0207751e-20)
(0.51479956 -0.0006785862 -1.7388096e-20)
(0.6142935 0.016667191 3.7891632e-20)
(0.70928744 0.035703123 4.7650382e-21)
(0.79779723 0.055255422 -2.5544877e-20)
(0.87822058 0.074302618 7.2091546e-20)
(0.94940015 0.091995172 3.6768059e-22)
(1.0106609 0.10767729 -8.3056009e-20)
(1.0618113 0.1208998 0)
(1.1031062 0.13141815 4.0634184e-20)
(1.1351766 0.1391754 5.6420076e-21)
(1.1589361 0.14427297 -7.9487597e-20)
(1.1754769 0.14693667 -2.0085795e-20)
(1.185973 0.14749435 -1.272402e-20)
(1.1915746 0.14628887 -1.5053401e-20)
(1.1931383 0.14326826 4.1288021e-20)
(0.049300405 -0.0090670669 -1.7296792e-20)
(0.15149576 -0.022725606 -2.8008216e-21)
(0.2604172 -0.021925008 3.0573269e-20)
(0.37228686 -0.011790265 3.7597031e-20)
(0.48393158 0.0043059261 -2.0299872e-20)
(0.59262123 0.0244605 -7.0991151e-20)
(0.69582276 0.046941327 -2.8960734e-20)
(0.79131705 0.070129846 8.1149828e-20)
(0.87733921 0.092644755 9.0252136e-21)
(0.95266581 0.11337869 -2.5500626e-20)
(1.0166561 0.13151019 1.3914717e-20)
(1.0692447 0.1465088 -4.4626024e-21)
(1.1108848 0.15812298 0)
(1.1424508 0.16634786 2.7905827e-20)
(1.1651147 0.17137765 -8.1242579e-20)
(1.1802159 0.17354937 -3.2225347e-20)
(1.1891379 0.17328796 8.2814692e-20)
(1.1932108 0.17106646 -4.549721e-21)
(1.1936297 0.16732905 3.5850492e-21)
(1.1913066 0.16220959 2.7767054e-20)
(0.061841365 -0.0071835468 -3.2508916e-20)
(0.18442507 -0.015755163 -8.2752492e-20)
(0.30943509 -0.0084011262 2.0371246e-21)
(0.4334789 0.0087023764 7.1624541e-20)
(0.55351269 0.031448907 6.3727487e-20)
(0.66685637 0.057433195 -7.2781985e-20)
(0.77112807 0.08454904 2.4847587e-23)
(0.86441623 0.11094381 8.8014402e-20)
(0.94542578 0.13515356 5.0098911e-20)
(1.0135415 0.15612915 -5.5718951e-20)
(1.0688185 0.17322361 -9.4734894e-20)
(1.1119084 0.18616293 -3.2378547e-21)
(1.1439338 0.19499425 4.313644e-20)
(1.1663343 0.20001463 -6.7173462e-21)
(1.1807053 0.20169091 -1.3058435e-20)
(1.1886537 0.20058114 1.9949295e-20)
(1.1916825 0.19726816 4.4741339e-20)
(1.1911163 0.19231508 -4.4598391e-20)
(1.1880588 0.18620474 -1.042239e-19)
(1.1833328 0.17916101 2.5152835e-20)
(0.074987755 -0.0035691975 -3.5449305e-20)
(0.21804865 -0.0043308263 -1.7488119e-19)
(0.35823659 0.011369189 8.40208e-20)
(0.49278933 0.036426361 9.4615666e-20)
(0.6190099 0.066087873 5.9005792e-20)
(0.73449732 0.097525985 8.8194344e-21)
(0.83727514 0.12837687 -1.0854781e-19)
(0.92599701 0.15670581 0)
(1.0000676 0.18113686 -7.061249e-20)
(1.0596524 0.20084817 -1.5612022e-20)
(1.1055965 0.21551466 5.5971944e-20)
(1.139275 0.22522832 1.1195755e-20)
(1.1624074 0.23039784 -4.6548733e-20)
(1.1768644 0.23163824 -4.9996236e-20)
(1.1844971 0.22966559 2.4830306e-20)
(1.1870063 0.22520834 4.5761501e-20)
(1.185859 0.21894337 -5.6668126e-20)
(1.1822533 0.21145986 -1.0938149e-19)
(1.177121 0.20322443 -3.1061671e-21)
(1.1711279 0.19449398 2.7464873e-20)
(0.088170346 0.0019280953 -3.7923692e-21)
(0.2508879 0.011741684 8.9011371e-20)
(0.40464002 0.037391948 -1.5379462e-20)
(0.54755127 0.071049259 -8.6389114e-20)
(0.67751984 0.10747856 4.610648e-20)
(0.79268129 0.14358346 4.9793849e-20)
(0.89172262 0.17692837 5.664319e-21)
(0.97409012 0.20570204 -1.0164082e-19)
(1.0400541 0.22881601 -2.5610773e-21)
(1.0906441 0.2458456 5.1622505e-20)
(1.1274876 0.25691032 6.1075919e-21)
(1.1525962 0.26253491 -2.0163969e-20)
(1.1681399 0.26350216 -7.7160567e-20)
(1.1762459 0.26071379 -6.3224572e-21)
(1.1788471 0.25507547 4.4273283e-20)
(1.1775886 0.24741457 3.7618891e-20)
(1.1737907 0.23843268 2.0035325e-20)
(1.1684586 0.22868769 -5.4037976e-20)
(1.1623242 0.21859103 1.2920543e-20)
(1.1558824 0.20840336 8.3785423e-20)
(-0.0013144038 0.0014471166 -9.5282103e-22)
(-0.0047565926 0.0031903464 1.9490883e-21)
(-0.010787219 0.0041127101 1.4598302e-21)
(-0.017700119 0.0044821498 -1.6185245e-21)
(-0.02455834 0.0044688962 -1.9861218e-21)
(-0.030932973 0.0041880211 2.1188328e-21)
(-0.036551728 0.0037234302 -7.7890255e-21)
(-0.041238501 0.0031359214 -6.7316301e-21)
(-0.044896558 0.0024688199 1.2280715e-20)
(-0.047483247 0.0017527219 -1.0606427e-20)
(-0.048989891 0.0010089869 -2.0143827e-22)
(-0.049428971 0.00025227933 3.9676063e-21)
(-0.048825673 -0.00050750782 -6.6065604e-22)
(-0.047212113 -0.001263725 2.4317817e-20)
(-0.044623721 -0.0020115867 2.8483842e-22)
(-0.041098721 -0.0027467054 -4.3323418e-20)
(-0.036680503 -0.0034644808 8.0317905e-21)
(-0.031409363 -0.0041628463 2.5108036e-20)
(-0.025295093 -0.0048403193 -4.6052548e-20)
(-0.018399284 -0.0054481652 -2.9063936e-20)
(-0.0016732253 0.0042141385 -5.5716256e-21)
(-0.0053952417 0.0092686217 1.0160188e-20)
(-0.011195554 0.011928204 -1.0388602e-20)
(-0.017532766 0.012972077 5.0155414e-21)
(-0.023567687 0.012897336 6.0048054e-21)
(-0.028922094 0.012041741 8.4026861e-22)
(-0.03335905 0.010651695 -2.5632191e-20)
(-0.036728105 0.0089056596 -2.2126835e-21)
(-0.038949884 0.0069307865 2.2042902e-20)
(-0.039992985 0.0048168416 -5.4766045e-21)
(-0.039855704 0.0026264468 -2.3482171e-20)
(-0.038554448 0.00040254006 5.250583e-21)
(-0.036116132 -0.0018259968 2.4025343e-20)
(-0.032572866 -0.0040398552 1.0962107e-20)
(-0.027958175 -0.0062252379 2.3270584e-20)
(-0.022307452 -0.0083697349 -2.0893414e-20)
(-0.015667762 -0.010460466 -2.2790178e-20)
(-0.0080894052 -0.012490857 2.2410607e-20)
(0.00049068908 -0.014446291 2.8033094e-20)
(0.010262504 -0.016159299 1.6401533e-20)
(-0.002322171 0.006602781 -4.5232886e-21)
(-0.0065078677 0.014455395 -5.1341515e-21)
(-0.01178965 0.0185492 1.473377e-22)
(-0.01694484 0.020097089 3.2497286e-22)
(-0.021322045 0.019878957 7.2375393e-21)
(-0.02464069 0.018430837 1.1437823e-20)
(-0.026732451 0.016144606 -4.1564786e-21)
(-0.027496759 0.013304217 -2.0474528e-20)
(-0.026888154 0.010112243 7.0960808e-21)
(-0.024897568 0.0067118869 1.3879696e-20)
(-0.021537612 0.0032031152 6.3679234e-21)
(-0.016833454 -0.00034556238 1.9268464e-20)
(-0.010816841 -0.0038882809 1.8394818e-21)
(-0.0035217675 -0.0073948511 -3.5735996e-20)
(0.0050193119 -0.010844118 1.4247605e-21)
(0.014773967 -0.014217436 -2.301399e-20)
(0.025686809 -0.017497343 -2.5939192e-20)
(0.037684672 -0.02067511 4.8284348e-20)
(0.050952713 -0.023697537 2.6730823e-20)
(0.066173714 -0.02620082 3.5311912e-22)
(-0.0031400315 0.0084042295 -5.5762634e-21)
(-0.0078141812 0.018253852 -1.0237407e-20)
(-0.012212937 0.023307396 4.4383927e-21)
(-0.015550488 0.025093993 4.489064e-21)
(-0.017435001 0.024608347 2.0782515e-21)
(-0.017722761 0.022546585 8.1880508e-21)
(-0.016342953 0.019419213 1.0231868e-20)
(-0.013266872 0.015596357 -1.5166537e-21)
(-0.008499012 0.011342632 -1.238452e-20)
(-0.0020644962 0.00684552 -3.1183778e-20)
(0.0060006585 0.0022360757 1.2671734e-22)
(0.015654688 -0.0023958533 4.3233513e-20)
(0.026854513 -0.0069906224 -1.9290245e-20)
(0.039557302 -0.011509428 -1.2980961e-20)
(0.053724609 -0.015926266 3.904209e-22)
(0.06932064 -0.020220284 3.4029789e-20)
(0.086276075 -0.024376852 -1.5880437e-20)
(0.10447699 -0.02839472 -5.5717819e-20)
(0.12423758 -0.032157041 4.7533402e-20)
(0.14694575 -0.034982747 3.4413104e-20)
(-0.0039643807 0.0094753265 -5.4177563e-22)
(-0.0089304569 0.02031133 -1.3016851e-20)
(-0.011966983 0.025719125 -3.686865e-20)
(-0.012799443 0.027405251 -6.5516732e-21)
(-0.011344418 0.026496754 -3.4573721e-21)
(-0.0076242688 0.023802421 6.8920226e-21)
(-0.0016888836 0.019917547 -5.1658512e-21)
(0.0063994798 0.015273716 -9.5580765e-21)
(0.016570898 0.010180097 2.3395957e-20)
(0.028752703 0.0048561111 5.3067229e-21)
(0.04287381 -0.00054442262 -2.7082596e-20)
(0.058864733 -0.005915946 1.1623783e-20)
(0.076658062 -0.011188455 0)
(0.096189036 -0.016317708 1.2721507e-20)
(0.11739865 -0.021276432 -1.0186315e-20)
(0.14023279 -0.02604677 -1.5121571e-20)
(0.16459513 -0.030627243 -1.2190482e-21)
(0.1903088 -0.035044804 -2.4729018e-21)
(0.21777745 -0.039116194 4.7483536e-20)
(0.24924541 -0.041700758 -1.1403407e-20)
(-0.0046092047 0.0097478804 -7.709279e-21)
(-0.0094029846 0.020444996 2.5847818e-20)
(-0.010444043 0.025525449 -1.1375026e-20)
(-0.0080011506 0.026731629 -2.9108378e-20)
(-0.0023251618 0.025235606 -2.8767626e-20)
(0.0063764989 0.021907231 -1.5885886e-20)
(0.017916013 0.017388417 -8.2748084e-22)
(0.032123903 0.012143332 5.9285562e-21)
(0.048850077 0.0065051471 2.0753665e-20)
(0.067960096 0.00071120028 7.7760891e-21)
(0.08933029 -0.0050720365 -7.5422525e-21)
(0.11284532 -0.01073033 -1.9759213e-21)
(0.13839445 -0.016188514 -4.0198338e-20)
(0.1658689 -0.021400804 -1.3323287e-20)
(0.19516368 -0.026342521 1.9906931e-20)
(0.22617865 -0.031004159 -2.2168822e-20)
(0.25876723 -0.035408061 -9.3802442e-21)
(0.29266428 -0.039638233 3.1392597e-20)
(0.32828883 -0.043479968 5.207832e-20)
(0.36879581 -0.045219552 3.533419e-21)
(-0.0048805723 0.009225555 1.7132068e-20)
(-0.0087404407 0.018644666 1.4798752e-20)
(-0.0069623801 0.022707705 5.3335308e-20)
(-0.00035685908 0.023062133 2.4713134e-20)
(0.010484511 0.020840149 1.943522e-22)
(0.02515915 0.01692038 -4.1749336e-20)
(0.043329196 0.01195169 -2.5603827e-20)
(0.064705252 0.0064012377 1.1039629e-20)
(0.089039068 0.00060369701 1.5171332e-20)
(0.11611321 -0.0052027084 -1.3701528e-20)
(0.14573 -0.010851357 -4.6397979e-20)
(0.17770264 -0.016229146 3.1181252e-20)
(0.21184764 -0.021263498 2.08811e-20)
(0.24797917 -0.025913513 -2.8870635e-20)
(0.28590888 -0.03016321 1.2268934e-20)
(0.3254497 -0.034018236 2.523754e-20)
(0.3663689 -0.037534824 8.4919836e-21)
(0.40828583 -0.040885444 -1.2505609e-20)
(0.45154474 -0.043902371 -1.4412952e-20)
(0.50014155 -0.044278082 6.8949686e-21)
(-0.0045874382 0.0079723512 1.1456571e-20)
(-0.0064405492 0.01505659 -2.4617697e-20)
(-0.00080149322 0.017477862 8.5342342e-21)
(0.01100046 0.016674562 3.5196449e-20)
(0.028039582 0.013660016 5.4262558e-20)
(0.049714787 0.0092720556 2.1234805e-20)
(0.075528698 0.0041284333 -6.128202e-21)
(0.10505351 -0.001332597 -1.2872644e-20)
(0.13792205 -0.0067990016 -6.5448185e-21)
(0.1738081 -0.012050869 3.5938228e-20)
(0.21240797 -0.016937513 -4.8490004e-21)
(0.25342639 -0.021360623 -1.753508e-20)
(0.29656556 -0.025262393 -2.0540689e-20)
(0.34151717 -0.028618113 -4.9679039e-20)
(0.38796136 -0.031431492 2.4215919e-20)
(0.43557459 -0.033734588 -1.4690473e-20)
(0.48399685 -0.035630857 2.7182188e-20)
(0.53271641 -0.037416842 2.1979712e-20)
(0.58193319 -0.039095907 -8.7942138e-20)
(0.63629161 -0.037928469 1.533785e-22)
(-0.0035486678 0.0060989838 2.2470594e-20)
(-0.0020155632 0.0099615199 -2.7264161e-20)
(0.0087523645 0.01026185 -4.6500058e-20)
(0.026938702 0.0081293256 -2.8313785e-20)
(0.051298219 0.0043871523 -2.1314608e-21)
(0.081026509 -0.00021504403 1.3671985e-20)
(0.11545299 -0.0051291736 -2.9673032e-21)
(0.1539922 -0.0099772533 1.8905928e-20)
(0.19612939 -0.014496856 9.2455073e-21)
(0.24139349 -0.018509614 -1.1892812e-20)
(0.28933239 -0.021901528 9.3821454e-21)
(0.33949502 -0.024608177 -2.5011952e-20)
(0.3914184 -0.026604141 8.6047719e-21)
(0.44461919 -0.027896415 1.7538501e-20)
(0.49859244 -0.028520479 -2.874722e-21)
(0.55282152 -0.02854229 1.8156849e-21)
(0.60676209 -0.028113094 -4.831299e-22)
(0.65974741 -0.027637462 2.0530426e-20)
(0.71179687 -0.027315009 4.0087816e-21)
(0.76796626 -0.024485663 -1.5709713e-21)
(-0.0015938354 0.0037517802 2.4427956e-20)
(0.0049880218 0.0037607531 5.9295861e-20)
(0.022352771 0.0016978319 -5.0691542e-20)
(0.048231038 -0.0017109427 -1.0308447e-20)
(0.081071064 -0.0059045186 2.1047886e-20)
(0.11986065 -0.010268123 2.2236692e-21)
(0.16373982 -0.014363041 -3.0961665e-20)
(0.21193786 -0.017907877 7.2712049e-21)
(0.26375554 -0.020722723 7.3918577e-21)
(0.31853312 -0.022701556 -2.7368493e-20)
(0.37562295 -0.023796636 1.3456647e-21)
(0.4343721 -0.024005813 -3.8852952e-20)
(0.49411268 -0.0233622 -3.7997603e-20)
(0.55415838 -0.021925883 6.8692998e-20)
(0.61380708 -0.019776646 5.8143153e-21)
(0.67234742 -0.017013131 -1.5850745e-20)
(0.72904365 -0.013793903 2.017068e-20)
(0.78306145 -0.01042404 -9.4981721e-22)
(0.83393763 -0.0069261928 2.0752292e-20)
(0.88538034 -0.0017679395 -2.071866e-20)
(-0.010195835 -0.0057306085 6.1095955e-20)
(-0.00056339982 -0.0062558543 1.6301005e-20)
(0.01048207 -0.0066779361 -3.6315561e-20)
(0.022586141 -0.0069272769 1.7466698e-20)
(0.03547466 -0.0070868759 0)
(0.049083824 -0.0071853001 0)
(0.063350944 -0.0072254437 -2.3540191e-20)
(0.078192927 -0.0072152746 -1.6823298e-20)
(0.093535667 -0.007164478 1.9570371e-20)
(0.10931635 -0.0070801173 1.8504012e-20)
(0.12547705 -0.0069675887 1.0443233e-21)
(0.14196322 -0.0068316386 -1.0384153e-20)
(0.15872403 -0.0066763996 8.4897032e-21)
(0.17571196 -0.0065053741 1.8249501e-20)
(0.19288223 -0.0063215596 -5.346239e-21)
(0.21019243 -0.0061275577 -1.0111905e-20)
(0.22760227 -0.0059256391 -4.2769604e-21)
(0.24507348 -0.0057177963 -4.3232461e-21)
(0.26256962 -0.0055057891 7.0896083e-22)
(0.28005606 -0.0052911811 1.2172476e-21)
(0.29749993 -0.0050753673 2.5749811e-21)
(0.31487016 -0.0048595945 6.537061e-21)
(0.33213747 -0.0046449777 1.7663174e-22)
(0.34927444 -0.0044325112 -3.3803781e-21)
(0.36625554 -0.0042230784 1.3758613e-22)
(0.38305717 -0.0040174578 -5.6187379e-22)
(0.39965771 -0.0038163294 1.2070143e-21)
(0.41603751 -0.0036202789 9.9573823e-22)
(0.43217893 -0.0034298031 -1.2935605e-21)
(0.44806632 -0.0032453143 -1.071028e-22)
(0.46368601 -0.0030671452 -1.8077602e-23)
(0.47902626 -0.0028955543 -3.3631943e-22)
(0.49407724 -0.0027307317 -4.087629e-22)
(0.50883095 -0.002572805 7.9536382e-23)
(0.52328118 -0.0024218455 -1.306697e-22)
(0.53742344 -0.0022778755 -2.0534979e-22)
(0.55125491 -0.0021408747 2.3410478e-22)
(0.56477442 -0.0020107881 2.6685003e-22)
(0.57798232 -0.0018875349 -2.5041809e-23)
(0.59088085 -0.0017710128 -1.60866e-22)
(0.603473 -0.0016611269 2.044109e-23)
(0.61576655 -0.0015577452 -2.9637529e-23)
(0.62776232 -0.0014609123 8.358273e-23)
(0.63949142 -0.0013702679 -4.3047412e-24)
(0.65090601 -0.0012870774 -1.2785741e-22)
(0.6622086 -0.0012081459 1.9947285e-24)
(0.67289613 -0.0011455867 4.3029217e-24)
(0.6845553 -0.0010669765 -4.7475219e-24)
(0.69285177 -0.0010811743 2.6988389e-23)
(0.71002755 -0.0009091873 3.6824695e-22)
(0.019697949 -0.016870876 -1.3583298e-20)
(0.028389024 -0.01846465 -6.5744064e-20)
(0.038971226 -0.019704706 -3.1933415e-20)
(0.050580234 -0.020415545 3.989897e-20)
(0.062827902 -0.02087404 1.5163043e-20)
(0.075730172 -0.021163072 -1.8930756e-20)
(0.089256101 -0.021283354 5.0216589e-21)
(0.10332555 -0.021256833 2.5977221e-20)
(0.11787183 -0.02111235 -9.2569395e-23)
(0.13284163 -0.020870181 -7.8692962e-21)
(0.14818408 -0.020545537 -1.2944012e-20)
(0.16384994 -0.020152009 -8.7572567e-21)
(0.17979289 -0.019701529 1.787514e-20)
(0.19596918 -0.019204213 9.3738037e-21)
(0.2123371 -0.018668745 -1.6319885e-20)
(0.22885672 -0.018102694 -6.0176887e-21)
(0.24548979 -0.017512698 3.14149e-21)
(0.26219968 -0.016904603 8.2087252e-21)
(0.2789513 -0.016283593 6.9474056e-21)
(0.29571109 -0.01565429 -7.0364678e-21)
(0.31244706 -0.015020833 -3.3065448e-21)
(0.32912881 -0.01438693 1.4981264e-21)
(0.34572764 -0.013755909 5.6911361e-22)
(0.36221651 -0.013130743 1.2327912e-21)
(0.37857019 -0.01251408 2.1982856e-22)
(0.3947653 -0.011908258 -3.5738865e-22)
(0.41078029 -0.011315325 -7.3980864e-22)
(0.42659556 -0.010737049 1.0363187e-21)
(0.4421934 -0.010174934 8.5429273e-22)
(0.45755804 -0.0096302306 -2.314193e-22)
(0.47267562 -0.0091039551 5.8127074e-22)
(0.48753416 -0.0085969011 -2.2839019e-22)
(0.50212351 -0.0081096577 -3.9824706e-22)
(0.51643533 -0.0076426277 -6.1734595e-22)
(0.53046301 -0.0071960457 4.182569e-22)
(0.54420164 -0.0067699991 -7.9704243e-23)
(0.55764794 -0.0063644484 2.0116172e-22)
(0.57080024 -0.0059792491 -4.5790348e-22)
(0.58365838 -0.0056141799 4.2265885e-22)
(0.59622407 -0.0052689544 6.256143e-23)
(0.60849977 -0.0049433079 -7.2726308e-23)
(0.62049267 -0.0046368635 2.0191389e-22)
(0.63220308 -0.0043497731 2.7007774e-22)
(0.64366133 -0.0040809749 2.0232594e-22)
(0.65481967 -0.0038342664 2.1181091e-22)
(0.66587772 -0.0036001225 -2.029796e-23)
(0.67633863 -0.0034146829 1.0776047e-22)
(0.68776656 -0.0031813392 9.5571894e-23)
(0.6958906 -0.0032240385 -2.0118436e-22)
(0.71275849 -0.0027134751 -1.8494435e-23)
(0.077867521 -0.026999905 1.0020596e-20)
(0.084689513 -0.029671591 3.6815961e-21)
(0.094240577 -0.031674014 -1.3277865e-20)
(0.10482342 -0.032766229 -1.5117088e-21)
(0.11576754 -0.033483459 1.5725328e-20)
(0.12724481 -0.033958024 -1.5367063e-20)
(0.13929443 -0.0341692 -3.0929614e-20)
(0.15183822 -0.034147113 1.5083169e-20)
(0.16482064 -0.033939049 1.8799314e-20)
(0.17820598 -0.033576392 -1.1944463e-20)
(0.19195619 -0.033081675 1.036494e-21)
(0.2060312 -0.032475599 8.5023782e-21)
(0.22039244 -0.031776694 -1.5597174e-20)
(0.23500273 -0.031000737 3.5042403e-21)
(0.2498256 -0.03016133 7.7108223e-21)
(0.26482532 -0.029270438 -3.4472087e-22)
(0.27996707 -0.028338643 3.3679357e-23)
(0.29521695 -0.02737534 -7.5655942e-21)
(0.31054206 -0.026388922 4.2486326e-21)
(0.32591062 -0.025386924 8.6014815e-21)
(0.34129202 -0.024376132 -3.8764173e-21)
(0.35665697 -0.023362664 -2.1844239e-21)
(0.37197758 -0.022352032 9.2508613e-22)
(0.38722745 -0.021349187 -1.7557519e-21)
(0.40238178 -0.020358553 1.3234225e-21)
(0.41741741 -0.019384056 7.0100586e-22)
(0.43231293 -0.018429143 1.7126699e-21)
(0.44704867 -0.017496806 -2.1023471e-21)
(0.46160677 -0.016589602 2.3876905e-21)
(0.47597117 -0.015709673 5.7844941e-22)
(0.49012761 -0.01485877 5.4701049e-22)
(0.50406361 -0.014038277 3.0763834e-22)
(0.51776843 -0.013249239 9.7112283e-22)
(0.53123306 -0.012492394 -1.4986279e-21)
(0.54445016 -0.011768198 4.1360348e-22)
(0.55741399 -0.011076864 1.8525739e-22)
(0.5701204 -0.010418391 -6.8518926e-23)
(0.58256682 -0.0097926055 3.7992379e-23)
(0.59475213 -0.0091992031 -3.9175702e-22)
(0.60667705 -0.0086377703 2.105883e-22)
(0.61834303 -0.0081079283 -3.1435895e-23)
(0.62975619 -0.007609109 4.9416047e-22)
(0.64091592 -0.0071416191 -2.3055876e-22)
(0.65185105 -0.0067037513 4.0602774e-23)
(0.66251401 -0.0063018296 6.4747274e-23)
(0.67309901 -0.0059201849 -8.7149316e-23)
(0.68312094 -0.0056183524 -1.4555479e-22)
(0.69410086 -0.0052376099 4.7353219e-22)
(0.70189024 -0.0053089084 1.7870197e-22)
(0.71816111 -0.0044759634 -8.4549701e-22)
(0.16154799 -0.035396836 1.720236e-21)
(0.16559238 -0.039129298 -1.1735701e-20)
(0.17339844 -0.041812386 6.6090858e-21)
(0.18235583 -0.043192268 -1.3844578e-20)
(0.1913095 -0.044131029 -2.0479783e-21)
(0.20063446 -0.044800628 9.7240575e-21)
(0.21048813 -0.045135786 -1.0559462e-20)
(0.2207909 -0.045165439 1.2586793e-21)
(0.23149527 -0.044952842 1.3226287e-20)
(0.24258833 -0.04453789 3.6959096e-21)
(0.25404874 -0.043947247 -6.3254439e-21)
(0.26584721 -0.043206096 -3.1108774e-21)
(0.27795416 -0.042337769 -5.6324096e-21)
(0.29034009 -0.041362407 -6.684649e-21)
(0.30297459 -0.040297529 2.9213515e-21)
(0.31582671 -0.03915873 4.5778938e-22)
(0.3288654 -0.037959996 1.5088504e-21)
(0.34205974 -0.036713903 -3.3829771e-21)
(0.35537919 -0.035431805 -4.4774432e-21)
(0.36879379 -0.034123998 2.4718364e-21)
(0.38227435 -0.032799834 3.4256058e-21)
(0.39579264 -0.031467808 -1.7539049e-21)
(0.40932152 -0.030135625 1.6546769e-21)
(0.42283512 -0.028810247 -4.7445328e-22)
(0.43630895 -0.027497928 -4.1853361e-21)
(0.44971996 -0.026204246 -3.0520845e-21)
(0.46304667 -0.024934125 -2.6216208e-22)
(0.4762692 -0.023691866 3.4742096e-22)
(0.48936931 -0.022481163 -2.2070193e-21)
(0.50233045 -0.021305141 -1.0034827e-21)
(0.5151377 -0.020166378 2.1963923e-22)
(0.52777785 -0.019066945 -1.3512998e-21)
(0.54023931 -0.018008437 -4.2191138e-23)
(0.55251211 -0.01699202 -4.8417577e-22)
(0.56458786 -0.016018468 -4.4908026e-22)
(0.57645971 -0.015088212 -6.389839e-22)
(0.58812233 -0.014201386 -9.9165829e-22)
(0.59957189 -0.013357877 -2.4976811e-23)
(0.61080597 -0.012557387 -3.6236015e-24)
(0.62182397 -0.011799465 -5.8742176e-22)
(0.63262598 -0.011083702 -3.9688709e-23)
(0.64321667 -0.010409421 -3.9552744e-22)
(0.65359417 -0.0097771552 -5.6586288e-22)
(0.66378529 -0.0091846417 4.5881946e-22)
(0.67374279 -0.008640701 1.4033542e-23)
(0.68365319 -0.0081238602 2.252335e-22)
(0.69304834 -0.0077159138 -1.6482047e-22)
(0.70338733 -0.0071996656 -3.2245938e-22)
(0.71069802 -0.0072993977 -2.4691952e-23)
(0.72611186 -0.0061704351 4.7853348e-22)
(0.26686776 -0.041276153 -2.23271e-20)
(0.26722726 -0.046041761 4.9241561e-20)
(0.27241693 -0.04931201 1.0616969e-20)
(0.27904901 -0.050911273 -1.6410364e-20)
(0.28530989 -0.052070165 -2.3550413e-21)
(0.29176456 -0.052977793 2.4458268e-21)
(0.29873659 -0.053507526 -1.9680577e-21)
(0.30614623 -0.053676656 -4.816085e-21)
(0.31394259 -0.053557436 -4.1220211e-21)
(0.32213438 -0.053195051 -1.2501095e-20)
(0.33071852 -0.052617882 1.8614927e-20)
(0.33967577 -0.05185291 6.8695693e-21)
(0.34898408 -0.050926112 -1.7038027e-20)
(0.35862054 -0.049860623 1.0066037e-20)
(0.36856002 -0.048676944 8.0819144e-21)
(0.37877548 -0.047393614 -5.2210907e-22)
(0.38923883 -0.046027553 -2.8948199e-21)
(0.39992141 -0.044594231 -4.1457908e-21)
(0.41079437 -0.043107818 -1.5386501e-21)
(0.42182894 -0.041581314 -1.3606134e-21)
(0.43299679 -0.040026651 -3.2721108e-21)
(0.44427022 -0.038454764 0)
(0.4556224 -0.036875644 -1.4526808e-21)
(0.46702754 -0.035298377 3.9726985e-21)
(0.47846105 -0.033731178 5.6120067e-21)
(0.48989962 -0.03218141 -9.1777486e-22)
(0.50132137 -0.030655617 -3.1909268e-21)
(0.51270587 -0.029159544 3.3409712e-21)
(0.52403422 -0.027698169 1.0152516e-22)
(0.53528906 -0.026275733 3.6823228e-21)
(0.5464546 -0.024895779 -5.1503257e-22)
(0.5575166 -0.023561198 1.778282e-21)
(0.56846238 -0.022274268 -8.7754891e-22)
(0.57928078 -0.021036711 3.7916511e-22)
(0.58996214 -0.019849744 -5.0963655e-22)
(0.60049826 -0.018714139 5.7844354e-22)
(0.61088241 -0.017630284 5.1497513e-22)
(0.62110929 -0.016598242 4.3234973e-22)
(0.63117499 -0.015617838 -1.0704655e-21)
(0.64107733 -0.01468869 7.6501898e-22)
(0.65081486 -0.013810464 -4.0517762e-22)
(0.66039056 -0.012982477 -1.2904643e-21)
(0.66980115 -0.01220557 1.6471394e-21)
(0.67907099 -0.011477044 -5.7074416e-23)
(0.68815347 -0.010808157 -1.8678646e-22)
(0.69722548 -0.010172096 -7.2752841e-24)
(0.70584048 -0.0096713426 -1.7540675e-22)
(0.71537923 -0.0090351992 -5.5630875e-22)
(0.72209297 -0.0091629084 8.1259758e-22)
(0.73643096 -0.0077727279 -4.8410788e-23)
(0.38892087 -0.043690248 -1.8719142e-20)
(0.38472839 -0.049516257 1.3121615e-20)
(0.38632827 -0.05332229 3.5762226e-21)
(0.38984863 -0.055163293 -7.971334e-21)
(0.39274254 -0.0566213 1.2521396e-20)
(0.3956715 -0.057864602 8.078865e-21)
(0.39915084 -0.058709625 -1.2816176e-20)
(0.40311756 -0.059158657 -6.2544342e-21)
(0.40750179 -0.059280083 1.3050979e-20)
(0.41232182 -0.05911819 -1.6158219e-20)
(0.41759024 -0.058701888 -1.4366325e-20)
(0.42329575 -0.058058497 1.4923228e-20)
(0.42942028 -0.057214819 6.954724e-21)
(0.43594429 -0.056195822 -4.8891247e-21)
(0.4428455 -0.055024424 -1.5055861e-21)
(0.45009879 -0.053721792 -3.7438856e-21)
(0.45767727 -0.05230762 4.9731897e-21)
(0.46555303 -0.050800255 3.6817156e-21)
(0.47369756 -0.049216774 -3.1630155e-21)
(0.48208218 -0.047573041 3.1282641e-21)
(0.4906784 -0.045883765 2.8993101e-21)
(0.49945818 -0.044162546 -3.3274179e-21)
(0.50839423 -0.042421898 3.6821171e-22)
(0.51746014 -0.040673272 -3.2098581e-21)
(0.52663061 -0.038927077 7.8784436e-21)
(0.53588154 -0.037192696 6.3993347e-21)
(0.54519015 -0.03547851 9.7321929e-22)
(0.55453506 -0.033791922 -1.8181171e-21)
(0.5638963 -0.032139392 4.1015229e-21)
(0.5732554 -0.030526472 7.80338e-21)
(0.58259539 -0.028957852 2.3714207e-21)
(0.59190077 -0.027437413 3.5922649e-21)
(0.60115754 -0.025968281 2.0985223e-21)
(0.61035315 -0.024552891 8.2193476e-22)
(0.6194765 -0.023193055 -2.5138756e-22)
(0.62851793 -0.021890027 2.9796099e-21)
(0.63746915 -0.020644587 6.731225e-22)
(0.64632332 -0.019457106 3.1184885e-22)
(0.6550749 -0.018327657 5.6789313e-23)
(0.66372011 -0.017256048 1.1435903e-21)
(0.67225584 -0.016242133 4.3828738e-23)
(0.68068333 -0.015285334 5.346862e-22)
(0.68899782 -0.014386892 -1.2648155e-22)
(0.69722106 -0.013543792 -3.6062141e-22)
(0.70530734 -0.012769654 -1.8459137e-22)
(0.71342248 -0.012032867 -5.0744707e-22)
(0.72114551 -0.011454691 2.125407e-22)
(0.72976536 -0.010716896 -1.5048882e-22)
(0.73579537 -0.010871855 -4.6422961e-22)
(0.74888869 -0.0092613722 2.7043758e-22)
(0.52164852 -0.041715342 3.5082773e-21)
(0.51225178 -0.048638311 -1.9223092e-20)
(0.5093183 -0.052983963 -2.4980984e-21)
(0.5089467 -0.055251028 5.6348333e-21)
(0.50793893 -0.05722857 3.4201019e-21)
(0.506862 -0.05899347 3.9381685e-22)
(0.50639245 -0.060336319 6.8703486e-21)
(0.50652711 -0.061260288 7.9885639e-21)
(0.50717411 -0.061819595 1.003062e-20)
(0.50833863 -0.062048816 -1.1669709e-20)
(0.51003859 -0.061975773 -2.2509589e-20)
(0.5122677 -0.061628236 -4.3300633e-21)
(0.51500809 -0.061033393 1.6538392e-20)
(0.51823938 -0.060217641 1.3219121e-20)
(0.52193878 -0.059206351 -5.796773e-21)
(0.52608067 -0.058023612 1.0532087e-21)
(0.5306373 -0.056692244 -4.0245579e-21)
(0.53557972 -0.055233866 2.8299452e-21)
(0.54087832 -0.053668874 -2.9274406e-22)
(0.54650326 -0.052016426 -1.9368787e-21)
(0.55242477 -0.050294432 8.2916849e-21)
(0.55861355 -0.04851956 -4.2928602e-22)
(0.56504098 -0.046707233 5.4476507e-22)
(0.57167933 -0.04487163 -5.2211676e-22)
(0.57850192 -0.043025696 -4.4477651e-21)
(0.58548327 -0.041181146 4.3438162e-21)
(0.59259922 -0.039348494 1.8625451e-21)
(0.59982695 -0.037537074 -3.4022942e-21)