/*--------------------------------*- C++ -*----------------------------------*\
  =========                 |
  \\      /  F ield         | OpenFOAM: The Open Source CFD Toolbox
   \\    /   O peration     | Website:  https://openfoam.org
    \\  /    A nd           | Version:  6
     \\/     M anipulation  |
\*---------------------------------------------------------------------------*/
FoamFile
{
    version     2.0;
    format      ascii;
    class       volSymmTensorField;
    location    "342";
    object      UPrime2Mean;
}
// * * * * * * * * * * * * * * * * * * * * * * * * * * * * * * * * * * * * * //

dimensions      [0 2 -2 0 0 0 0];

internalField   nonuniform List<symmTensor> 
9200
(
(5.8071085e-05 -4.5074949e-05 2.0996054e-22 3.6171125e-05 -1.1219584e-22 3.4019021e-39)
(0.00035858497 -0.00028700528 5.4018443e-22 0.00023060011 -4.030818e-22 3.7012611e-39)
(0.00072636725 -0.00056289847 6.4333105e-23 0.00043881084 -4.881539e-23 2.0290743e-39)
(0.0011472823 -0.00082996132 -8.1639169e-22 0.00060728137 5.734378e-22 4.0462356e-39)
(0.0015640547 -0.0010681516 4.0118962e-23 0.00074234979 -3.2848365e-23 5.9311481e-40)
(0.0019479753 -0.0012667274 3.4586694e-22 0.00084379247 -2.2891018e-22 9.392361e-41)
(0.0022789404 -0.0014217908 -7.5688535e-23 0.00091499937 5.1951941e-23 2.6877529e-40)
(0.0025405258 -0.0015333966 6.8748643e-23 0.00096172297 -4.5887361e-23 1.8101769e-40)
(0.0027211076 -0.0016035145 3.359284e-22 0.00098950732 -2.0316419e-22 5.1660307e-40)
(0.0028143247 -0.0016351279 2.6203318e-23 0.0010030754 -1.592194e-23 1.4750376e-42)
(0.0028191764 -0.0016318131 -3.6434363e-22 0.0010063342 2.2279615e-22 2.7778159e-40)
(0.0027400324 -0.0015974792 3.0603577e-22 0.0010024183 -1.9393495e-22 3.852758e-41)
(0.00258632 -0.0015362018 -5.467057e-22 0.00099375911 3.6582303e-22 5.9523929e-40)
(0.0023717548 -0.0014521222 -2.7835669e-22 0.00098218229 1.8985413e-22 3.8616916e-41)
(0.0021131327 -0.0013493837 7.2391087e-23 0.00096901492 -5.318803e-23 4.8961479e-42)
(0.0018287878 -0.0012320731 -2.7404229e-22 0.00095518892 2.1231783e-22 5.1908239e-41)
(0.001536839 -0.0011041694 2.4179565e-22 0.0009413899 -2.0285727e-22 6.2780684e-41)
(0.0012534146 -0.00096956429 1.8131084e-22 0.00092855178 -1.5917188e-22 2.526916e-40)
(0.00099232191 -0.00083188083 -5.7835453e-24 0.00091790175 1.2646151e-23 4.6390888e-41)
(0.0007689181 -0.00069359991 -3.035181e-24 0.00090027075 1.1087869e-23 5.7504072e-41)
(7.6671991e-05 -5.125177e-05 2.1837784e-23 3.5180722e-05 -8.3434661e-24 5.9880144e-41)
(0.00045766174 -0.00031714709 5.7204662e-22 0.00022045474 -3.7209322e-22 3.9475656e-39)
(0.00091167196 -0.00061287409 -1.8443535e-22 0.00041438844 1.2376759e-22 2.1439728e-39)
(0.0014003333 -0.0008872102 -1.4661321e-21 0.00056851464 9.1546656e-22 9.3639615e-39)
(0.0018569843 -0.0011214345 -5.1523389e-23 0.0006894848 3.2521313e-23 1.1812464e-40)
(0.0022481695 -0.0013060339 1.1377716e-21 0.000778266 -6.6998689e-22 3.0996856e-39)
(0.0025529129 -0.0014392426 -4.6935118e-22 0.00083929371 2.7340288e-22 1.0685567e-40)
(0.0027574941 -0.0015235696 -1.4189074e-22 0.00087882545 8.1933824e-23 3.8119424e-41)
(0.0028558529 -0.0015633022 5.4089462e-22 0.00090257943 -3.1411572e-22 2.9177762e-40)
(0.0028494568 -0.0015634588 -6.582837e-22 0.00091523064 3.8846664e-22 3.3560471e-40)
(0.002746724 -0.001529309 -4.6880666e-22 0.00092044795 2.8351079e-22 4.1340914e-40)
(0.0025621138 -0.0014660961 1.0172134e-21 0.00092096675 -6.3964785e-22 2.1034004e-39)
(0.0023147036 -0.0013788955 4.757013e-22 0.00091868657 -3.1831319e-22 1.4857725e-40)
(0.0020262803 -0.0012725667 -7.5363219e-22 0.00091478832 5.3827043e-22 7.3127231e-40)
(0.0017191604 -0.0011517505 1.3615165e-22 0.00090984902 -1.0479444e-22 6.0735841e-41)
(0.0014140456 -0.0010208755 -3.0381407e-22 0.00090394253 2.619718e-22 1.6284034e-40)
(0.0011281855 -0.00088415762 -1.2576251e-22 0.00089675523 1.2777125e-22 5.1047805e-41)
(0.00087405732 -0.00074551558 3.9047628e-22 0.00088774285 -4.3121852e-22 8.2625025e-40)
(0.00065936596 -0.00060812025 1.8629007e-22 0.00087527425 -2.4490252e-22 1.5790163e-40)
(0.00048950284 -0.00047510618 -8.1340388e-23 0.00085103336 1.0022751e-22 1.1758229e-39)
(9.7695705e-05 -5.565227e-05 -1.8399355e-22 3.2411987e-05 7.8306295e-23 1.5381671e-39)
(0.00056346192 -0.00033480816 -3.0719175e-22 0.0001994711 1.7065666e-22 1.6033728e-39)
(0.0011024005 -0.00063722245 -3.4966381e-22 0.00037049808 2.0375077e-22 4.0077893e-39)
(0.0016485458 -0.00090653984 1.1747695e-23 0.00050442585 -6.4511033e-24 4.3530152e-43)
(0.0021272691 -0.0011264089 1.1353571e-23 0.00060802068 -5.4595485e-24 2.8798129e-39)
(0.0025027725 -0.0012895955 3.9848783e-22 0.00068340465 -2.121244e-22 8.0547509e-40)
(0.0027567406 -0.0013970616 3.9413481e-23 0.00073567048 -1.9577735e-23 3.3338582e-40)
(0.0028822657 -0.0014538844 -6.8137259e-22 0.00077103941 3.6473026e-22 2.1388354e-40)
(0.0028829254 -0.0014664411 8.0917193e-22 0.00079485318 -4.4378907e-22 4.0377896e-40)
(0.0027714392 -0.0014413073 2.6720323e-22 0.00081121709 -1.5370281e-22 4.4131594e-40)
(0.0025677879 -0.0013848159 -7.3868041e-22 0.00082308913 4.4352678e-22 9.1405535e-40)
(0.0022968763 -0.0013028763 -2.3292294e-22 0.00083239904 1.497195e-22 2.9815808e-40)
(0.0019857776 -0.001200968 8.3620441e-23 0.00084019039 -5.7897078e-23 8.0654401e-40)
(0.0016608532 -0.0010842244 2.0349877e-22 0.00084678003 -1.562078e-22 1.1654488e-40)
(0.0013451747 -0.00095752816 -7.188344e-23 0.00085192003 6.1540161e-23 8.8856773e-41)
(0.0010566391 -0.00082556233 1.6740459e-22 0.00085495956 -1.6547439e-22 7.0967902e-41)
(0.00080700992 -0.00069279312 -1.1564711e-22 0.00085500565 1.3454312e-22 2.7395212e-41)
(0.00060191005 -0.00056335151 -2.3818335e-22 0.00085102403 3.2490199e-22 6.6120148e-40)
(0.00044172802 -0.00044073235 -8.9730248e-24 0.00084164793 9.5263408e-24 5.9178271e-40)
(0.00032355931 -0.00032818964 8.3339106e-23 0.00082397334 -1.7705008e-22 6.8566016e-41)
(0.00012044069 -5.7627234e-05 -1.4619126e-22 2.8110584e-05 5.3863217e-23 7.6392696e-40)
(0.00067058103 -0.00033703973 2.2534438e-22 0.00016981597 -1.1052197e-22 1.4295127e-40)
(0.0012871215 -0.00063176452 1.9982409e-22 0.00031203677 -9.8489435e-23 1.6509961e-40)
(0.0018750586 -0.00088438156 4.3553417e-22 0.00042255065 -2.0782773e-22 1.7799692e-39)
(0.0023544568 -0.001081813 3.8408926e-22 0.00050793022 -1.8226395e-22 7.9193227e-40)
(0.0026909322 -0.0012198199 -6.7779564e-22 0.00057112618 3.2156772e-22 6.0559355e-40)
(0.0028733176 -0.0013021087 -3.8012414e-22 0.00061729006 1.8347229e-22 1.7244649e-40)
(0.0029058738 -0.0013357797 0 0.00065197669 0 0)
(0.0028052543 -0.0013284548 4.1715097e-22 0.00067959229 -2.2575459e-22 2.2187977e-39)
(0.0025972627 -0.0012873118 -1.8200537e-22 0.00070320272 1.0678755e-22 8.4048466e-40)
(0.0023131921 -0.0012188467 -1.0713663e-21 0.0007246798 6.3607846e-22 7.5067301e-40)
(0.0019859745 -0.0011289229 -1.3739544e-22 0.00074486911 8.6194046e-23 1.5027897e-40)
(0.0016464906 -0.0010229593 5.3258457e-22 0.00076378086 -3.9381931e-22 1.0143146e-39)
(0.0013205482 -0.00090612208 2.9251167e-23 0.00078080226 -1.9142662e-23 4.1803918e-40)
(0.0010269659 -0.00078341824 -8.3048151e-24 0.00079492187 8.0633143e-24 2.9539413e-43)
(0.00077695145 -0.00065965198 8.9731325e-23 0.00080496115 -1.0280758e-22 5.199778e-41)
(0.00057468047 -0.0005392622 1.5314255e-25 0.00080978122 2.148326e-24 6.0529029e-41)
(0.00041873837 -0.00042609721 -1.6056876e-22 0.00080838421 2.671405e-22 1.6010688e-40)
(0.00030390958 -0.00032317511 -8.9841647e-23 0.00080027716 1.8620866e-22 1.111617e-40)
(0.00022310388 -0.00023273474 4.6273281e-23 0.0007865434 -1.3730768e-22 6.8991988e-40)
(0.00014387038 -5.6620537e-05 1.1058788e-22 2.2679288e-05 -3.5237148e-23 3.0051814e-40)
(0.00077228701 -0.00032191312 4.6095165e-22 0.00013451679 -1.8385414e-22 2.7076153e-39)
(0.0014528695 -0.0005946938 3.6538306e-22 0.00024514983 -1.5044349e-22 1.7191423e-40)
(0.0020625561 -0.00082083294 4.0592684e-22 0.00033160096 -1.6573682e-22 9.5255571e-40)
(0.0025200925 -0.00099107373 -6.2630521e-22 0.00039986915 2.5847718e-22 1.5012214e-39)
(0.0027972924 -0.0011042454 2.462948e-23 0.00045320135 -7.921595e-24 1.4279477e-40)
(0.0028948193 -0.0011660305 3.6086418e-23 0.00049614824 -1.5674927e-23 1.2051641e-42)
(0.0028316352 -0.0011843141 5.1489051e-22 0.00053304133 -2.3891844e-22 5.3731352e-40)
(0.002639106 -0.0011666441 6.9780386e-23 0.00056692936 -3.435455e-23 4.85613e-42)
(0.0023554404 -0.0011196573 -1.8812437e-22 0.00059953367 1.0602553e-22 2.90447e-40)
(0.002020303 -0.0010492028 6.1413722e-22 0.00063143568 -3.7878985e-22 2.0270103e-39)
(0.00167006 -0.00096066393 -4.4808923e-22 0.0006622868 2.9373931e-22 1.7632669e-40)
(0.0013341958 -0.00085926431 -8.4824458e-22 0.00069105385 6.5819347e-22 1.2491485e-39)
(0.0010333305 -0.00075020637 -2.8197218e-23 0.00071629812 2.5754744e-23 2.6382618e-42)
(0.00077893844 -0.00063858949 3.0543858e-22 0.00073646863 -3.3870544e-22 1.007539e-39)
(0.00057448579 -0.0005291538 0 0.0007501845 0 0)
(0.00041746068 -0.00042595292 3.840807e-23 0.0007564429 -5.5043933e-23 2.6201614e-41)
(0.00030169163 -0.00033208243 -1.9618883e-23 0.00075466542 4.2358355e-23 3.8946867e-41)
(0.00021935141 -0.00024955845 -1.9713812e-23 0.00074521261 4.2764766e-23 1.0271026e-41)
(0.00016245665 -0.00017929731 9.6904203e-24 0.00073118422 -4.0123029e-23 6.9987854e-41)
(0.00016671719 -5.2296611e-05 2.41909e-22 1.6683581e-05 -6.2332015e-23 1.2153147e-39)
(0.00086144354 -0.00028912966 2.3876649e-23 9.731138e-05 -7.8368084e-24 2.2505789e-42)
(0.00158721 -0.00052745449 -6.8618547e-23 0.00017679582 2.3161824e-23 9.9669921e-42)
(0.0021964015 -0.00072043634 7.1531022e-23 0.00024074917 -2.2980005e-23 1.9684577e-40)
(0.0026114922 -0.00086257333 -4.3199094e-22 0.00029421997 1.5130225e-22 3.6947225e-40)
(0.0028155561 -0.00095496748 -2.0841833e-22 0.00034017688 7.5716592e-23 3.3461145e-41)
(0.0028248848 -0.0010037216 1.4896764e-22 0.00038205156 -4.5619146e-23 1.0517666e-39)
(0.0026747561 -0.0010157967 -5.3393248e-24 0.00042263304 6.0573627e-24 8.2268593e-41)
(0.002410332 -0.00099724928 -3.5437064e-22 0.00046343391 1.7525792e-22 8.7055746e-40)
(0.0020789735 -0.00095325844 6.1658911e-22 0.00050473906 -3.1910158e-22 2.5846576e-40)
(0.0017239036 -0.00088863214 -1.688025e-23 0.00054581467 2.3301309e-23 4.5190473e-40)
(0.0013797434 -0.00080826414 -4.9301192e-22 0.00058516735 3.5610913e-22 1.2498953e-39)
(0.0010702841 -0.00071732749 0 0.00062086699 0 0)
(0.00080845322 -0.00062114103 1.2139909e-22 0.00065090776 -1.3632074e-22 6.6927664e-40)
(0.00059798195 -0.00052479043 6.3204499e-24 0.00067355583 -1.2914235e-23 3.660818e-41)
(0.00043600818 -0.00043267067 -1.4821598e-22 0.00068762819 2.3060542e-22 7.7908519e-40)
(0.00031584381 -0.00034811287 -3.3573855e-23 0.00069262645 5.9572746e-23 1.6359317e-41)
(0.00022933487 -0.00027321479 -1.0451961e-23 0.00068866636 2.7888251e-23 2.611926e-41)
(0.00016844661 -0.00020893581 -1.3592324e-23 0.00067688166 3.7633774e-23 1.020655e-41)
(0.00012608216 -0.00015522422 2.4709108e-23 0.00066105613 -9.2280448e-23 9.7346716e-41)
(0.0001876241 -4.4624165e-05 9.3215538e-23 1.07959e-05 -1.7935595e-23 1.9246368e-40)
(0.00093142924 -0.00024023347 -6.703044e-22 6.2180489e-05 1.6866411e-22 4.1853893e-39)
(0.0016799339 -0.00043471841 -5.8644908e-23 0.00011380018 1.6679131e-23 3.9080814e-40)
(0.0022667149 -0.00059158597 -1.7789706e-22 0.00015834394 5.2467254e-23 1.9655218e-39)
(0.0026234906 -0.00070823 -1.3560758e-22 0.00019966903 3.7569466e-23 2.7245097e-41)
(0.0027489182 -0.00078635754 -7.6822126e-22 0.0002400696 2.3751414e-22 3.6160718e-40)
(0.0026767994 -0.00083043338 -3.7737863e-22 0.00028166914 1.3251595e-22 2.907517e-40)
(0.0024577931 -0.00084476375 7.3271343e-22 0.00032572596 -2.7500493e-22 2.3681908e-40)
(0.0021474649 -0.00083285284 1.2583797e-22 0.00037229301 -6.4365865e-23 2.9797207e-40)
(0.0017973991 -0.00079804595 -1.6187055e-22 0.00042030562 7.3193217e-23 1.0211347e-40)
(0.0014492176 -0.0007442195 7.5548314e-23 0.00046782355 -2.7870128e-23 3.8230423e-40)
(0.0011317052 -0.00067606696 -1.487596e-23 0.00051238097 1.9189101e-23 9.6904491e-41)
(0.00086079741 -0.00059890729 0 0.0005514197 0 0)
(0.00064168089 -0.00051814469 8.1634278e-23 0.00058272576 -8.4079103e-23 2.3708429e-41)
(0.00047196754 -0.0004386237 -1.745314e-22 0.00060477535 2.2522849e-22 3.2159968e-40)
(0.00034495985 -0.00036411516 -5.6812956e-23 0.00061692279 8.5923112e-23 2.7860953e-41)
(0.00025233407 -0.00029706471 9.902272e-23 0.00061938242 -1.9486163e-22 3.8333846e-40)
(0.00018595726 -0.00023863095 -2.1373101e-23 0.00061301036 2.8548509e-23 8.2018456e-41)
(0.00013881548 -0.00018899471 -1.2001836e-24 0.00059949211 -2.5684e-24 9.1979524e-42)
(0.00010523793 -0.00014763508 2.2678883e-23 0.00058245482 -6.6175143e-23 8.5438615e-42)
(0.00020529673 -3.3904973e-05 6.7747914e-23 5.7055139e-06 -8.8866281e-24 1.2052844e-40)
(0.00097698152 -0.00017848412 -6.2302946e-22 3.2786563e-05 1.1222093e-22 1.92038e-39)
(0.0017243153 -0.00032376843 -4.866549e-22 6.1901478e-05 9.6444399e-23 2.2973448e-39)
(0.002269482 -0.000445237 6.9962545e-22 9.0807669e-05 -1.4576841e-22 5.6437251e-40)
(0.0025586205 -0.00054150679 5.3014344e-22 0.00012222358 -1.1879651e-22 1.1823504e-40)
(0.0026085348 -0.00061263414 -3.9037213e-22 0.00015775187 8.5763528e-23 1.2207164e-39)
(0.002469889 -0.00065939086 1.2680909e-22 0.00019843477 -4.7936814e-23 5.1656622e-40)
(0.0022053484 -0.00068216692 7.4759516e-22 0.0002443124 -2.6301708e-22 5.841484e-40)
(0.0018758859 -0.00068151309 3.2876662e-22 0.0002942258 -1.282396e-22 7.4264625e-41)
(0.0015321073 -0.00065915005 -3.2423954e-22 0.00034594247 1.6382573e-22 1.9074133e-40)
(0.0012099772 -0.0006184586 -4.4092746e-22 0.0003965012 2.5992926e-22 2.3007474e-40)
(0.00093038425 -0.0005642583 -1.2057012e-23 0.00044271819 8.611613e-24 2.3998793e-43)
(0.00070146561 -0.00050206924 1.2757722e-22 0.0004817437 -1.1019797e-22 3.7340221e-41)
(0.00052231374 -0.00043720407 -4.7215142e-24 0.00051152163 1.4421414e-23 5.584573e-41)
(0.00038680811 -0.00037402259 -5.2365761e-24 0.0005310426 2.3498916e-23 1.5114809e-40)
(0.00028673774 -0.00031553831 4.1254496e-24 0.00054035685 -3.0736377e-23 2.7304211e-40)
(0.0002138848 -0.00026338936 4.5608273e-23 0.00054036936 -8.8735472e-23 8.0547791e-41)
(0.00016113336 -0.00021808017 -2.6233234e-23 0.00053249929 7.4731464e-23 2.089955e-40)
(0.00012283577 -0.00017940712 -6.6826641e-23 0.00051866559 1.814146e-22 4.0697762e-40)
(9.4677227e-05 -0.00014676958 2.2071807e-23 0.00050187045 -5.3128339e-23 9.2932774e-42)
(0.00021871274 -2.0751025e-05 -1.7670902e-22 2.0203366e-06 1.4730997e-23 3.6022669e-40)
(0.00099491644 -0.00010844889 -1.4071829e-22 1.1968057e-05 1.5049856e-23 3.8904627e-40)
(0.0017178016 -0.00020350032 1.0714321e-21 2.5027276e-05 -1.3560377e-22 4.749178e-39)
(0.0022067866 -0.00029333221 8.0096233e-22 4.1975563e-05 -1.152495e-22 5.209234e-40)
(0.0024262954 -0.00037549803 3.6049171e-22 6.4875387e-05 -5.6069949e-23 2.5543032e-40)
(0.0024112966 -0.00044607903 7.2828034e-23 9.5087992e-05 -1.475413e-23 2.4820504e-42)
(0.0022261273 -0.00050063311 -6.8579704e-22 0.00013315168 1.5058636e-22 1.0682266e-39)
(0.0019404076 -0.00053514736 0 0.00017836319 0 0)
(0.0016151879 -0.00054749859 -4.2201716e-22 0.00022864623 1.7993179e-22 8.8395868e-40)
(0.0012959158 -0.00053837039 -7.2893226e-23 0.00028080277 4.7034825e-23 1.9985049e-40)
(0.001010747 -0.00051113047 2.0780357e-22 0.00033107462 -1.1881348e-22 4.9862767e-41)
(0.00077265769 -0.00047089304 2.261007e-23 0.00037585638 -2.8101917e-23 1.0992836e-40)
(0.00058354366 -0.00042326399 -9.9819009e-23 0.00041233802 9.6072563e-23 1.2854139e-40)
(0.00043865822 -0.00037324453 -7.5588075e-23 0.00043889538 9.699944e-23 2.7414726e-40)
(0.00033030419 -0.00032457709 4.8424768e-23 0.00045516233 -4.8713712e-23 3.3790843e-41)
(0.00025033409 -0.00027957584 6.7303091e-23 0.00046183177 -8.5705539e-23 3.1620324e-41)
(0.00019150906 -0.00023931111 -6.0236932e-23 0.00046029335 9.8176625e-23 2.9604039e-41)
(0.00014802117 -0.00020397108 -8.1210212e-23 0.00045224042 1.7128256e-22 3.407056e-40)
(0.00011550842 -0.00017328584 6.0953713e-24 0.00043952463 -1.3920041e-24 3.9756555e-41)
(9.0760074e-05 -0.00014676891 1.1187287e-23 0.00042433956 -3.6491576e-23 4.7030813e-41)
(0.00022708997 -5.9868645e-06 -1.1657404e-22 1.8103632e-07 2.9704159e-24 1.7620322e-40)
(0.00098416948 -3.542772e-05 4.9969953e-22 1.3979005e-06 -1.7852193e-23 9.777323e-40)
(0.0016619945 -8.337407e-05 7.6378672e-22 4.9333815e-06 -4.679293e-23 7.0878309e-39)
(0.0020862894 -0.00014746771 -8.9954443e-22 1.2974901e-05 7.6926927e-23 1.9543695e-39)
(0.0022411262 -0.00022164717 3.2645153e-22 2.787858e-05 -3.5437529e-23 4.979427e-41)
(0.0021769221 -0.00029621161 1.3524195e-22 5.15904e-05 5.4982714e-25 1.8024101e-39)
(0.0019666837 -0.00036088184 3.5438566e-23 8.4874542e-05 -7.1019527e-24 6.6083387e-43)
(0.001681476 -0.00040758888 -5.0566546e-22 0.00012674889 1.1558335e-22 6.1100457e-40)
(0.0013779764 -0.00043231162 -1.1506056e-23 0.00017447053 3.9342473e-24 9.9620125e-44)
(0.0010940495 -0.00043538986 1.8965554e-22 0.00022407537 -9.7307331e-23 2.3258116e-40)
(0.00084979109 -0.00042050627 1.498032e-23 0.00027126401 -1.4976047e-23 3.3150059e-41)
(0.00065163814 -0.00039303527 -6.8251402e-23 0.00031231123 1.8657462e-23 4.2886794e-40)
(0.00049735614 -0.00035846467 -1.5303893e-22 0.00034470557 1.230985e-22 4.9462598e-41)
(0.00038039898 -0.00032132616 -1.0377857e-24 0.00036737682 1.167841e-23 5.5847442e-41)
(0.00029298382 -0.00028475392 5.2147468e-23 0.00038054472 -6.7331807e-23 5.4932788e-41)
(0.00022785077 -0.00025053853 3.4829956e-23 0.000385337 -5.4270439e-23 5.3161363e-41)
(0.00017901906 -0.00021944453 8.1120098e-24 0.00038334624 -2.5625e-23 8.5749721e-41)
(0.00014193249 -0.00019159742 -5.5444843e-23 0.00037626204 7.7442008e-23 6.9610293e-41)
(0.00011330055 -0.00016682721 -1.1063818e-23 0.00036566508 -7.0418981e-24 2.9396485e-40)
(9.0755065e-05 -0.00014479328 3.1122342e-23 0.00035295288 -9.3580582e-23 4.8595512e-40)
(1.5073283e-06 -1.884352e-07 1.5059231e-23 2.3007668e-07 -3.0127066e-24 1.7217201e-40)
(7.1039094e-06 -2.9734361e-06 -2.1490342e-23 1.5274098e-06 5.9547106e-24 1.6574414e-40)
(1.5912315e-05 -6.8714336e-06 4.7730789e-23 3.0452787e-06 -1.7895796e-23 9.5214617e-40)
(5.1016605e-05 -1.4503147e-05 1.3328572e-22 4.3689299e-06 -2.8456596e-23 3.2018068e-39)
(0.00011197715 -2.3933217e-05 -9.5278534e-23 5.5608264e-06 1.6260496e-23 8.3280043e-40)
(0.00020017398 -3.4500672e-05 1.2016071e-22 6.6222046e-06 -1.6353372e-23 9.2016673e-40)
(0.00031852696 -4.585057e-05 -1.6520633e-22 7.5544652e-06 2.1056163e-23 1.0109789e-39)
(0.00046785788 -5.7627457e-05 -1.7050679e-22 8.3765891e-06 1.7911378e-23 1.068732e-39)
(0.00064752652 -6.954277e-05 2.1493401e-22 9.1089792e-06 -2.2416105e-23 1.1303716e-39)
(0.00085641227 -8.1383923e-05 -1.6714045e-22 9.7674874e-06 1.6434871e-23 5.758218e-40)
(0.0010930999 -9.299086e-05 -8.3043242e-24 1.0364117e-05 1.3933362e-25 6.6891453e-42)
(0.0013559018 -0.00010423951 4.8432847e-23 1.0908042e-05 -5.1839061e-24 2.1232069e-41)
(0.0016429395 -0.00011503208 -8.3049486e-24 1.1406276e-05 4.0574164e-25 3.3581094e-42)
(0.0019522214 -0.00012529099 2.6444583e-22 1.1864452e-05 -2.3876474e-23 1.0092167e-39)
(0.0022816886 -0.00013495715 2.756484e-25 1.2287781e-05 5.0005399e-25 2.1765609e-42)
(0.0026292621 -0.00014399354 -3.9208699e-22 1.268202e-05 3.6817433e-23 2.0766616e-39)
(0.0029929058 -0.00015238835 7.3121163e-23 1.3053327e-05 -7.6804175e-24 4.3944322e-41)
(0.0033706353 -0.00016014073 1.7841361e-22 1.3406238e-05 -1.7649622e-23 5.2811252e-40)
(0.0037604803 -0.00016728229 -2.9181225e-22 1.3745252e-05 3.0769442e-23 1.497244e-39)
(0.0041601853 -0.00017402866 -1.6270532e-22 1.406709e-05 1.8192155e-23 5.6211714e-40)
(1.7071468e-06 -7.8810012e-07 4.9643843e-24 2.0245565e-06 -1.8386979e-24 1.7069001e-41)
(9.0561214e-06 -1.0188768e-05 -1.3610264e-22 1.345963e-05 1.026169e-22 5.5430104e-39)
(2.0322847e-05 -2.3133456e-05 2.7006328e-23 2.6828053e-05 -2.2326558e-23 5.0028564e-40)
(6.0030206e-05 -4.6959557e-05 1.434476e-22 3.8491798e-05 -8.8199057e-23 2.6764022e-39)
(0.00012633635 -7.5980195e-05 1.9943361e-22 4.8973008e-05 -9.599128e-23 3.0265872e-39)
(0.00022019895 -0.00010825387 2.413468e-23 5.8267828e-05 -9.6998122e-24 2.8433683e-41)
(0.00034420462 -0.0001427205 -6.4232196e-22 6.6390761e-05 2.231879e-22 1.5139809e-38)
(0.00049877208 -0.00017832871 -2.2724049e-23 7.3510094e-05 9.4423063e-24 4.3948268e-42)
(0.00068289973 -0.00021423071 3.6463513e-22 7.9805108e-05 -1.1146958e-22 2.5852268e-39)
(0.00089513671 -0.0002498016 -8.8140637e-23 8.5415334e-05 2.4451061e-23 1.4374543e-40)
(0.0011337402 -0.00028456921 -3.3545322e-22 9.0446435e-05 9.2357711e-23 1.595268e-39)
(0.0013966906 -0.00031816575 7.0730439e-23 9.4978561e-05 -1.8176984e-23 7.2628597e-41)
(0.0016817696 -0.00035029905 2.989903e-22 9.9072001e-05 -6.7308103e-23 1.7101498e-39)
(0.0019866293 -0.00038073412 1.2417751e-22 0.00010277377 -3.1026058e-23 1.9548322e-40)
(0.0023088264 -0.00040928655 2.4957805e-22 0.00010612584 -6.6638888e-23 5.6595685e-40)
(0.0026458674 -0.00043583217 -1.97918e-22 0.0001091734 4.9969248e-23 4.7847803e-40)
(0.0029953251 -0.00046031958 -1.9004365e-22 0.00011196553 4.7453999e-23 5.2326279e-40)
(0.0033547904 -0.00048272467 1.9322961e-22 0.00011454132 -5.4619302e-23 3.0302644e-40)
(0.0037211808 -0.00050312936 1.7775297e-22 0.00011694491 -4.8942105e-23 5.2902036e-40)
(0.004090878 -0.00052236319 6.9618773e-23 0.00011916461 -1.8381585e-23 2.2445324e-40)
(2.1942616e-06 -2.0169914e-06 3.8197008e-24 5.3989463e-06 -1.9152032e-24 8.9914387e-42)
(1.3689469e-05 -2.1056418e-05 1.0337756e-22 3.5929756e-05 -1.1064862e-22 2.3623578e-39)
(3.0597456e-05 -4.6537861e-05 -2.2632724e-23 7.1564458e-05 2.9170283e-23 1.2372429e-40)
(7.9951733e-05 -8.916361e-05 -1.5587719e-22 0.00010264193 1.3130863e-22 2.9293658e-39)
(0.00015733224 -0.00013981172 5.7549843e-23 0.00013047283 -4.8367432e-23 8.3198958e-41)
(0.00026284611 -0.0001953474 7.6425862e-23 0.00015498598 -6.2172592e-23 4.4105671e-41)
(0.00039840723 -0.00025401887 -9.501821e-23 0.00017621515 5.048025e-23 2.611023e-40)
(0.00056367132 -0.00031412286 -2.4925544e-22 0.00019460801 1.4568424e-22 5.2335211e-40)
(0.00075694398 -0.00037429656 1.0913347e-22 0.00021064075 -5.317935e-23 1.4600486e-40)
(0.00097613058 -0.0004335305 2.319183e-22 0.00022468691 -9.6772871e-23 8.2861184e-40)
(0.0012188493 -0.00049105424 6.5314953e-23 0.00023703086 -4.5050203e-23 3.1331077e-41)
(0.0014824336 -0.0005462599 2.8430622e-22 0.00024788737 -9.493281e-23 1.537113e-39)
(0.0017640022 -0.00059865514 2.4210293e-23 0.00025741504 -9.0047286e-24 6.378926e-42)
(0.0020605147 -0.00064783149 -4.2489422e-22 0.00026573231 1.4417384e-22 2.4726626e-39)
(0.0023687875 -0.0006934518 3.1706461e-23 0.00027293933 -2.0666361e-23 1.3739742e-41)
(0.0026855399 -0.00073526676 -1.9956886e-22 0.0002791412 5.5997118e-23 9.6303514e-40)
(0.003007616 -0.00077314472 -2.8345658e-22 0.00028445323 1.1194508e-22 3.9731171e-40)
(0.0033318588 -0.00080699719 4.6209165e-22 0.00028898958 -1.7929778e-22 1.3179144e-39)
(0.0036533019 -0.00083692272 2.4531336e-22 0.00029293844 -1.0065889e-22 2.6872199e-40)
(0.0039662742 -0.00086470408 4.8785098e-23 0.00029639952 -2.1950459e-23 5.7750509e-42)
(3.2321863e-06 -4.1709344e-06 -5.7112467e-24 9.9407696e-06 7.1861748e-24 1.3213894e-41)
(2.2445989e-05 -3.7391258e-05 -2.3959081e-22 6.6287749e-05 3.0297521e-22 7.8405255e-39)
(4.9683882e-05 -8.0643479e-05 -1.7387701e-23 0.0001319278 2.2345337e-23 1.0712577e-40)
(0.0001150188 -0.00014586996 4.0274656e-23 0.00018908665 -4.4581096e-23 6.8389538e-41)
(0.00021044764 -0.0002209922 -6.4298157e-24 0.00024002416 1.6264896e-24 1.7641927e-41)
(0.00033481841 -0.00030175392 2.0531581e-22 0.0002844644 -1.5060706e-22 1.2878283e-39)
(0.00048900394 -0.00038570554 2.2732352e-22 0.00032244412 -1.4860914e-22 1.1700511e-39)
(0.00067152256 -0.00047054999 -6.8782979e-23 0.00035478718 3.3308396e-23 1.8430161e-40)
(0.00087963466 -0.00055446715 -2.5318637e-22 0.00038237592 1.3249207e-22 1.1723389e-39)
(0.0011102583 -0.00063609566 -5.1209073e-22 0.00040591301 2.7655192e-22 2.4879682e-39)
(0.001360029 -0.00071437979 -1.08511e-23 0.00042594116 -6.0690702e-24 5.6728988e-41)
(0.0016252933 -0.00078847161 6.5385643e-22 0.00044287364 -3.0519866e-22 4.0652761e-39)
(0.0019021646 -0.0008576654 -2.6500408e-22 0.00045701428 1.0153521e-22 1.2010181e-39)
(0.0021865788 -0.00092135944 -1.7204601e-22 0.00046858676 7.5471286e-23 2.3723566e-40)
(0.0024742974 -0.00097903491 -2.1247031e-23 0.00047777088 2.323092e-23 5.1161542e-41)
(0.0027609621 -0.0010302767 4.0998511e-22 0.00048474303 -1.7972626e-22 9.7395571e-40)
(0.0030424477 -0.001074833 -2.3331463e-22 0.00048969241 1.1633249e-22 6.605772e-41)
(0.0033147355 -0.0011125538 -5.3626088e-22 0.00049286159 2.2555279e-22 2.0962651e-39)
(0.0035706945 -0.0011435634 3.6216088e-22 0.00049484671 -1.5707574e-22 1.0542921e-39)
(0.0038023853 -0.0011707603 3.1216948e-22 0.00049630662 -1.2492647e-22 9.798905e-40)
(5.1690267e-06 -7.4281232e-06 2.5653632e-23 1.5152347e-05 -2.4929936e-23 1.6881682e-40)
(3.7251883e-05 -6.0260329e-05 8.2419494e-24 0.00010118733 -2.069965e-24 7.6456972e-41)
(8.1482338e-05 -0.00012751607 -3.3090712e-22 0.00020106398 4.7351388e-22 6.435972e-39)
(0.00017070426 -0.00021971335 -1.9008029e-22 0.00028776357 2.0184656e-22 1.9894936e-39)
(0.00029246019 -0.00032232503 1.2667746e-22 0.00036449295 -1.0087154e-22 1.2022045e-39)
(0.00044387961 -0.00042996959 1.5811199e-22 0.00043060412 -1.2739905e-22 5.66548e-40)
(0.00062433396 -0.00053946283 -2.0562711e-22 0.00048612453 1.3434368e-22 1.3253059e-39)
(0.0008307622 -0.00064797944 -3.1388048e-22 0.00053232853 1.8025657e-22 2.9082349e-39)
(0.0010589604 -0.0007533149 4.6630283e-22 0.00057059431 -2.786566e-22 2.9852919e-39)
(0.0013044509 -0.00085380648 1.3332716e-22 0.00060204386 -5.4050699e-23 6.9459798e-40)
(0.0015624889 -0.00094814774 -4.2449951e-22 0.00062756643 2.8039805e-22 2.3279279e-40)
(0.0018280597 -0.0010352769 1.8545498e-22 0.00064785572 -8.4450376e-23 5.34995e-40)
(0.0020959537 -0.0011143043 0 0.00066343647 0 0)
(0.0023608283 -0.0011844637 1.8196903e-22 0.00067470053 -8.8698861e-23 2.0961196e-40)
(0.0026172298 -0.0012450866 -1.3690569e-22 0.00068195605 6.5065676e-23 1.1195308e-40)
(0.0028596834 -0.0012956246 -2.1053301e-22 0.00068548128 1.0492409e-22 1.3621283e-40)
(0.0030832231 -0.0013357418 7.8376279e-23 0.0006855411 -6.3168043e-23 1.9099918e-40)
(0.0032833866 -0.0013653222 -6.3624487e-23 0.00068251591 3.7749011e-23 6.9544647e-42)
(0.003451446 -0.0013846658 3.0666901e-22 0.00067773066 -1.3259385e-22 1.1340085e-39)
(0.0035769954 -0.0013976737 -2.4820486e-22 0.00067332121 1.2100597e-22 6.6741469e-41)
(8.4084184e-06 -1.1845972e-05 2.4600011e-23 2.0541663e-05 -2.0682839e-23 1.3555665e-40)
(6.0286545e-05 -8.9874301e-05 1.1887559e-22 0.00013711613 -1.5822109e-22 5.075851e-40)
(0.00013030813 -0.00018740949 -1.5958726e-22 0.00027163758 2.1162823e-22 1.2073077e-39)
(0.00025277946 -0.00031064399 -2.6272063e-22 0.00038778187 2.9528388e-22 1.0125105e-39)
(0.00040996182 -0.00044305564 -7.8412813e-23 0.00048959392 1.1407171e-22 7.987678e-40)
(0.00059666189 -0.00057805423 -2.3799482e-22 0.00057594543 2.0887009e-22 4.9716486e-40)
(0.00081014871 -0.00071167679 -1.1028077e-22 0.00064689762 6.7916293e-23 5.7369764e-40)
(0.0010452554 -0.00084066219 1.9159457e-22 0.00070425231 -1.1527181e-22 1.0582903e-39)
(0.0012958351 -0.0009625359 4.5943523e-22 0.00074997116 -2.7386215e-22 3.6240453e-39)
(0.0015555727 -0.0010754428 1.4203574e-22 0.00078569759 -8.7378015e-23 1.5208264e-40)
(0.0018179883 -0.0011779422 -1.3497163e-22 0.00081277527 7.1692718e-23 2.411368e-40)
(0.0020764557 -0.0012688833 -2.4701565e-23 0.00083228823 -5.5542481e-24 2.0994949e-40)
(0.0023243282 -0.0013473303 -6.4695364e-22 0.00084508957 3.5363512e-22 2.0019487e-39)
(0.0025550653 -0.0014125128 -2.0127606e-22 0.00085184167 1.0515572e-22 2.0705906e-40)
(0.0027623211 -0.0014637989 3.3843061e-22 0.00085307054 -1.9498489e-22 9.9214566e-41)
(0.0029400971 -0.0015007075 -3.3797742e-22 0.00084922019 1.8204955e-22 2.0555482e-40)
(0.0030834476 -0.0015230033 -1.1945496e-22 0.00084063644 5.8695761e-23 6.5529911e-41)
(0.0031887491 -0.0015307978 2.6848315e-22 0.00082774376 -1.1341814e-22 1.0173215e-39)
(0.0032475359 -0.0015248437 4.0906247e-22 0.00081269366 -2.0367541e-22 7.72895e-40)
(0.0032471477 -0.0015097264 4.9734467e-23 0.00080024079 -2.3195196e-23 1.5034776e-41)
(1.3380651e-05 -1.7365133e-05 -6.9375322e-23 2.5662278e-05 5.6323364e-23 8.020046e-40)
(9.3726511e-05 -0.00012556646 -7.6742804e-23 0.00017074541 7.7850889e-23 6.3925702e-40)
(0.00020024692 -0.00025863895 1.9598038e-22 0.00033665125 -2.4716152e-22 2.9705206e-40)
(0.00036622983 -0.00041566966 2.9815362e-22 0.00047873666 -3.085077e-22 1.3419117e-39)
(0.00056778346 -0.00057852786 3.8952096e-24 0.00060173482 -3.5042528e-24 2.6624739e-43)
(0.00079659302 -0.00073931324 -8.1088012e-22 0.00070406697 6.6833418e-22 7.8330006e-39)
(0.0010471033 -0.0008932967 -3.1929035e-22 0.00078596681 2.7250279e-22 1.1330895e-40)
(0.0013114869 -0.0010369483 2.4733869e-22 0.0008498721 -1.6668471e-22 8.5933533e-40)
(0.0015812416 -0.0011677379 2.8454429e-22 0.00089842591 -1.9077869e-22 5.2585959e-40)
(0.0018479522 -0.001283851 -2.7858119e-22 0.00093390005 1.5510513e-22 1.4424754e-39)
(0.0021033109 -0.0013839612 -8.2345276e-22 0.00095820763 5.1830078e-22 2.1064413e-39)
(0.0023392303 -0.0014671038 5.4272072e-22 0.00097293834 -3.279343e-22 8.6610342e-40)
(0.0025480726 -0.0015326007 3.231682e-22 0.00097938795 -1.6841534e-22 1.0359151e-39)
(0.0027228885 -0.0015800141 -4.4970915e-22 0.0009785994 2.4747359e-22 8.5572986e-40)
(0.0028576145 -0.0016091159 1.9824406e-22 0.00097141433 -1.1390169e-22 5.7595396e-41)
(0.0029472931 -0.0016198763 3.2968013e-22 0.00095851369 -1.6938403e-22 6.3718475e-40)
(0.0029888481 -0.0016125045 1.2597288e-22 0.0009403313 -7.0617092e-23 2.1813873e-41)
(0.0029816388 -0.0015875848 -2.1630736e-22 0.00091715245 1.3251587e-22 2.7894779e-41)
(0.0029204644 -0.0015465254 -5.0698204e-23 0.00089161476 1.6756324e-23 1.5764245e-40)
(0.0027918985 -0.0014940479 2.8464577e-22 0.00087182479 -1.6329008e-22 6.4885798e-41)
(2.0510532e-05 -2.381066e-05 -2.0164656e-24 3.0117786e-05 -2.2337383e-24 1.5058439e-41)