/*--------------------------------*- C++ -*----------------------------------*\
  =========                 |
  \\      /  F ield         | OpenFOAM: The Open Source CFD Toolbox
   \\    /   O peration     | Website:  https://openfoam.org
    \\  /    A nd           | Version:  6
     \\/     M anipulation  |
\*---------------------------------------------------------------------------*/
FoamFile
{
    version     2.0;
    format      ascii;
    class       volScalarField;
    location    "341";
    object      pPrime2Mean;
}
// * * * * * * * * * * * * * * * * * * * * * * * * * * * * * * * * * * * * * //

dimensions      [0 4 -4 0 0 0 0];

internalField   nonuniform List<scalar> 
9200
(
0.033031941
0.027387462
0.022608403
0.019496539
0.017012091
0.014917604
0.013109916
0.01153639
0.010161986
0.0089586563
0.0079031775
0.0069760969
0.0061609997
0.0054439504
0.0048130574
0.0042581527
0.0037706279
0.0033432967
0.0029707657
0.0026459295
0.026802962
0.022182431
0.018318136
0.015777466
0.013738468
0.012014313
0.010523966
0.0092260702
0.008092775
0.0071016459
0.0062339638
0.0054739059
0.0048079831
0.0042246063
0.0037137522
0.0032667256
0.0028760335
0.0025352106
0.0022381905
0.0019763136
0.020962081
0.017326503
0.01432135
0.012318567
0.010698111
0.0093210019
0.0081274137
0.0070869116
0.0061787258
0.0053858856
0.0046939569
0.0040904684
0.0035645342
0.0031065747
0.0027081168
0.0023616633
0.0020606195
0.0017991524
0.0015713838
0.0013696134
0.015671222
0.012950456
0.010722936
0.0092093474
0.0079690035
0.0069064605
0.0059815936
0.0051742335
0.0044703069
0.0038578799
0.0033263338
0.0028660687
0.0024683532
0.0021252419
0.0018295406
0.0015747957
0.0013552825
0.0011659132
0.001001661
0.00085669812
0.011076244
0.0091718153
0.0076194657
0.0065331346
0.0056245587
0.004836273
0.0041457775
0.0035421761
0.0030173873
0.0025637988
0.0021739135
0.0018403827
0.0015561321
0.0013145031
0.001109382
0.00093529116
0.0007874212
0.00066157998
0.00055389181
0.00046044325
0.0073056782
0.0060929696
0.0050965759
0.0043644395
0.0037309232
0.0031700478
0.0026743048
0.0022406899
0.0018660642
0.0015461652
0.0012757726
0.0010491249
0.00086034151
0.0007037722
0.0005742473
0.00046721878
0.00037879688
0.00030570808
0.00024518369
0.00019480087
0.0044670099
0.0037987411
0.0032270885
0.0027673625
0.0023455661
0.0019600529
0.001615136
0.0013139367
0.00105692
0.00084204747
0.00066550042
0.00052249391
0.00040796336
0.00031705761
0.00024543767
0.00018940887
0.00014592619
0.00011253796
8.7370101e-05
6.9001595e-05
0.0026439535
0.002354721
0.0020696919
0.0017943641
0.0015160245
0.0012498352
0.0010083053
0.00079861549
0.00062333247
0.00048149666
0.00036989065
0.00028420079
0.00021988296
0.00017270714
0.00013903123
0.00011588002
0.00010090268
9.2294932e-05
8.8806628e-05
8.9599244e-05
0.0018941308
0.0018054235
0.0016664741
0.00148359
0.0012774432
0.00107217
0.00088433152
0.00072282129
0.00059074325
0.00048717601
0.00040887233
0.00035163392
0.00031122429
0.00028386903
0.00026645224
0.0002565257
0.00025222314
0.00025216472
0.00025543893
0.00026144634
0.0022465989
0.0021728179
0.0020403579
0.0018564052
0.0016502391
0.0014466266
0.0012616058
0.0011033425
0.00097403417
0.00087197945
0.00079347085
0.00073419089
0.00069003481
0.00065749165
0.00063374669
0.0006166302
0.00060450733
0.000596172
0.00059076919
0.00058764423
0.078307518
0.065861488
0.054434248
0.04720816
0.041470322
0.036653975
0.032507147
0.028893905
0.025730088
0.022949559
0.020498284
0.018331531
0.016411832
0.014707512
0.013191597
0.011840985
0.010635791
0.0095582061
0.0085915048
0.0077260135
0.07731139
0.064959991
0.053663565
0.046520451
0.040854466
0.03609949
0.032005779
0.028439633
0.025317858
0.022574951
0.020157389
0.018020872
0.016128301
0.014448328
0.012954267
0.011623277
0.010435736
0.0093740938
0.0084215288
0.0075686993
0.075279478
0.063175159
0.0521614
0.045195849
0.039676977
0.035046412
0.031059782
0.027587576
0.02454878
0.021879464
0.019527355
0.017449172
0.015608671
0.013975229
0.012522793
0.01122908
0.010074998
0.0090435196
0.0081178762
0.0072888897
0.072247263
0.060550325
0.049971146
0.043275468
0.037975074
0.033528434
0.0297
0.026366171
0.023449206
0.020887632
0.018631133
0.016638017
0.01487336
0.013307652
0.01191579
0.010676312
0.0095708689
0.0085831886
0.0076968388
0.006902523
0.068297507
0.057159952
0.047156235
0.040816039
0.035799648
0.031591439
0.027968091
0.024813457
0.022054031
0.019631586
0.017498415
0.015614941
0.013947988
0.012469516
0.011155664
0.0099860194
0.0089431346
0.0080116677
0.0071760009
0.0064265948
0.063542708
0.053102677
0.04379894
0.037890054
0.033215283
0.029293278
0.025916113
0.022976424
0.020405787
0.018149918
0.016164284
0.014411895
0.01286171
0.011487473
0.010266829
0.0091806222
0.0082124261
0.0073479141
0.0065728192
0.0058776507
0.058119467
0.048496796
0.039996653
0.034582539
0.030297346
0.026701184
0.02360423
0.020908999
0.018552878
0.016486113
0.014667834
0.013064042
0.011646178
0.010390063
0.0092750919
0.0082835643
0.007400197
0.0066116856
0.0059055067
0.0052728532
0.05218354
0.043476082
0.035858757
0.030988435
0.027129668
0.023889661
0.021098836
0.018670416
0.016548177
0.014687375
0.013051202
0.011609001
0.010334995
0.0092073525
0.0082074504
0.0073192606
0.006528826
0.0058239229
0.0051939962
0.0046315552
0.045904202
0.038184786
0.031502659
0.027209108
0.023801409
0.020937712
0.018470101
0.01632302
0.014447073
0.012802901
0.011358079
0.010085573
0.0089626439
0.0079700326
0.0070913173
0.0063123558
0.005620773
0.0050056665
0.0044586995
0.003973739
0.039458113
0.032773598
0.02704959
0.023347917
0.020402747
0.01792477
0.015788225
0.013928943
0.012304636
0.010881569
0.0096319129
0.0085324315
0.0075635743
0.0067087931
0.0059540056
0.0052871531
0.0046978525
0.004177356
0.0037202646
0.0033207386
0.0068130673
0.0059030207
0.0051315426
0.0044619244
0.0038900322
0.0034002975
0.0029792091
0.0026151753
0.0022987719
0.0020223455
0.0017796979
0.001565864
0.001376859
0.0012094438
0.001060949
0.00092914654
0.00081215138
0.00070834713
0.00061633113
0.00053487357
0.00046288617
0.0003993981
0.00034353743
0.00029451654
0.00025162098
0.00021420073
0.00018166339
0.00015346878
0.00012912455
0.00010818262
9.0236124e-05
7.4916669e-05
6.1891923e-05
5.0863216e-05
4.1563361e-05
3.375438e-05
2.7225432e-05
2.1790557e-05
1.7286824e-05
1.3571765e-05
1.0522759e-05
8.0315901e-06
6.0120779e-06
4.3746211e-06
3.0831837e-06
2.0207178e-06
1.2834069e-06
5.919976e-07
7.7662906e-07
1.296384e-06
0.0066810158
0.0058010898
0.0050516405
0.0043989443
0.0038409477
0.0033624315
0.0029500183
0.0025925531
0.0022810923
0.0020083638
0.0017684877
0.0015567607
0.0013693915
0.0012032733
0.0010558262
0.00092488294
0.0008085999
0.00070538973
0.000613871
0.00053283015
0.0004611918
0.00039799573
0.00034237887
0.00029356114
0.00025083448
0.00021355434
0.000181133
0.00015303423
0.00012876907
0.00010789227
8.9999355e-05
7.4723945e-05
6.173537e-05
5.0736346e-05
4.1460833e-05
3.3671799e-05
2.7159186e-05
2.1737674e-05
1.7244863e-05
1.3538722e-05
1.0496991e-05
8.011755e-06
5.9970817e-06
4.3635922e-06
3.0754141e-06
2.0156452e-06
1.2807151e-06
5.9038779e-07
7.7207777e-07
1.2715709e-06
0.0064486936
0.0056229572
0.0049133751
0.0042917195
0.0037586765
0.0032999424
0.0029025566
0.0025562349
0.0022529871
0.0019862966
0.0017508816
0.0015425094
0.0013577255
0.0011936475
0.0010478437
0.00091824554
0.00080307597
0.00070079365
0.00061005066
0.00052965898
0.00045856356
0.00039582086
0.00034058183
0.00029207829
0.00024961233
0.00021254808
0.0001803052
0.00015235376
0.0001282101
0.00010743344
8.9623039e-05
7.4415621e-05
6.1483089e-05
5.0530283e-05
4.1292902e-05
3.3535346e-05
2.7048725e-05
2.1648678e-05
1.7173591e-05
1.3482084e-05
1.045243e-05
7.9771629e-06
5.9707307e-06
4.3440804e-06
3.0616158e-06
2.0066125e-06
1.2759901e-06
5.8754014e-07
7.6297906e-07
1.2230977e-06
0.0061304015
0.0053796614
0.0047267131
0.0041499115
0.0036518553
0.0032199795
0.0028425127
0.0025106229
0.0022177998
0.0019586879
0.001728855
0.0015246851
0.0013431484
0.0011816404
0.0010379096
0.00091000752
0.00079623915
0.00069512094
0.00060534762
0.00052576415
0.00045534189
0.00039315901
0.00033838464
0.00029026602
0.00024811834
0.00021131685
0.00017929063
0.00015151769
0.00012752107
0.00010686557
8.9155075e-05
7.4030131e-05
6.1165781e-05
5.0269434e-05
4.107888e-05
3.3360221e-05
2.6905948e-05
2.1532829e-05
1.7080168e-05
1.3407343e-05
1.0393256e-05
7.9309619e-06
5.9353613e-06
4.3177882e-06
3.0429803e-06
1.9944305e-06
1.2696402e-06
5.8379718e-07
7.4932465e-07
1.1534423e-06
0.0057401576
0.0050824158
0.0045018865
0.0039833339
0.0035291309
0.0031294293
0.0027750963
0.0024595906
0.002178408
0.001927724
0.00170414
0.0015047186
0.0013268783
0.0011683072
0.0010269459
0.00090097586
0.00078879376
0.00068898329
0.00060029007
0.00052159893
0.00045191338
0.00039033793
0.00033606362
0.00028835602
0.00024654575
0.00021002099
0.00017822167
0.00015063482
0.00012679097
0.00010626109
8.8654135e-05
7.3614776e-05
6.0821394e-05
4.9984093e-05
4.0842824e-05
3.3165427e-05
2.6745781e-05
2.1401777e-05
1.6973628e-05
1.3321453e-05
1.0324769e-05
7.8771491e-06
5.8939427e-06
4.2868776e-06
3.0210179e-06
1.9801234e-06
1.2621669e-06
5.7959815e-07
7.3124049e-07
1.0662458e-06
0.0052898895
0.0047413806
0.0042480978
0.0037999463
0.0033968013
0.0030326963
0.0027031715
0.0024050566
0.0021362267
0.0018945626
0.0016777652
0.0014835659
0.0013098126
0.0011544848
0.0010157234
0.00089185135
0.00078136926
0.00068293979
0.00059536966
0.00051759187
0.00044864855
0.00038767566
0.00033388988
0.00028657795
0.00024508794
0.00020882243
0.00017723315
0.0001498168
0.00012611177
0.00010569538
8.8181686e-05
7.3219421e-05
6.0490172e-05
4.9706569e-05
4.0610533e-05
3.2971447e-05
2.6584391e-05
2.1268203e-05
1.6863844e-05
1.3232039e-05
1.0252806e-05
7.8201379e-06
5.8497583e-06
4.253741e-06
2.997392e-06
1.9648123e-06
1.2540958e-06
5.7541187e-07
7.0892987e-07
9.659274e-07
0.0047912321
0.0043667097
0.0039735296
0.0036045361
0.0032569075
0.0029301845
0.0026264191
0.002346676
0.0020912327
0.0018595335
0.0016503159
0.0014619638
0.0012927571
0.0011409869
0.0010050242
0.00088336161
0.00077462751
0.00067758243
0.0005911089
0.00051419916
0.00044594213
0.00038551094
0.00033215208
0.00028517616
0.0002439505
0.00020789311
0.00017646809
0.00014918197
0.00012558087
0.00010524821
8.7802733e-05
7.2896769e-05
6.0214629e-05
4.9470978e-05
4.040924e-05
3.27999e-05
2.6438835e-05
2.1145476e-05
1.6761219e-05
1.3147128e-05
1.0183498e-05
7.7645504e-06
5.8062316e-06
4.2208554e-06
2.9738065e-06
1.9496307e-06
1.2459312e-06
5.7168899e-07
6.8266641e-07
8.5726725e-07
0.0042587158
0.0039700012
0.0036844573
0.0033964
0.0031050979
0.00281735
0.002541483
0.0022824609
0.0020426121
0.0018226644
0.0016223249
0.0014407009
0.0012765998
0.0011287079
0.00099569528
0.00087627907
0.00076925552
0.00067351158
0.00058802563
0.00051186295
0.00044416846
0.00038415857
0.00033111328
0.00028436931
0.00024331425
0.00020738187
0.00017604843
0.00014882976
0.00012527902
0.00010498485
8.7569787e-05
7.2688884e-05
6.0028301e-05
4.930393e-05
4.0259949e-05
3.2667273e-05
2.6321983e-05
2.1043577e-05
1.667344e-05
1.3072591e-05
1.012128e-05
7.7136982e-06
5.7657871e-06
4.1899559e-06
2.9514234e-06
1.9353383e-06
1.2379306e-06
5.6872932e-07
6.5275761e-07
7.4506295e-07
0.0037067929
0.00355619
0.003374204
0.0031604139
0.0029249503
0.002680791
0.0024386373
0.0022054913
0.0019853635
0.0017802744
0.0015910206
0.0014176296
0.0012596326
0.0011162618
0.0009865958
0.00086965535
0.0007644608
0.0006700641
0.00058556571
0.00051012167
0.00044294485
0.00038330284
0.00033051446
0.00028394598
0.00024300752
0.00020714996
0.00017586252
0.00014867069
0.00012513471
0.00010484832
8.7437594e-05
7.2559898e-05
5.9902837e-05
4.9183078e-05
4.0145108e-05
3.2559842e-05
2.6223161e-05
2.0954267e-05
1.6594203e-05
1.3003662e-05
1.0062606e-05
7.6649917e-06
5.7265748e-06
4.159759e-06
2.9293581e-06
1.921365e-06
1.2295963e-06
5.6640733e-07
6.1966085e-07
6.3424021e-07
0.0031577202
0.0031125678
0.0030132178
0.0028692035
0.002695551
0.0025046612
0.0023056078
0.0021059884
0.0019114906
0.0017257628
0.0015509675
0.0013882883
0.0012381974
0.0011006521
0.00097527413
0.00086148793
0.00075861097
0.00066591299
0.0005826541
0.00050810795
0.00044157463
0.00038238696
0.00032991292
0.00028355607
0.0002427549
0.00020698194
0.00017574272
0.00014857501
0.0001250481
0.00010476224
8.7348043e-05
7.2465913e-05
5.980532e-05
4.9083958e-05
4.0046725e-05
3.2464542e-05
2.6133034e-05
2.0871007e-05
1.6519054e-05
1.2937411e-05
1.0005643e-05
7.6173584e-06
5.6880357e-06
4.1300062e-06
2.9075303e-06
1.9076332e-06
1.220869e-06
5.6459983e-07
5.8462758e-07
5.2999744e-07
0.0025606071
0.0025760251
0.002543871
0.0024666686
0.0023584022
0.0022281215
0.0020820754
0.0019270342
0.0017692358
0.0016132707
0.0014623085
0.0013185375
0.00118336
0.0010575359
0.00094135213
0.00083477324
0.00073754797
0.00064928609
0.00056951361
0.00049771137
0.00043334057
0.00037585936
0.00032473337
0.00027944244
0.0002394848
0.00020437988
0.00017367015
0.00014692248
0.00012372915
0.00010370854
8.6505599e-05
7.1792027e-05
5.9266198e-05
4.8652816e-05
3.9702294e-05
3.2189891e-05
2.5914643e-05
2.0698052e-05
1.6382833e-05
1.2830927e-05
9.9232241e-06
7.5545126e-06
5.640938e-06
4.0961277e-06
2.8835829e-06
1.8936951e-06
1.2108803e-06
5.63479e-07
5.4808196e-07
4.3816768e-07
0.0019851149
0.0020343881
0.002044461
0.0020149655
0.001956958
0.0018770758
0.0017790416
0.0016680596
0.0015497031
0.0014283674
0.0013073314
0.0011891181
0.0010755849
0.00096798031
0.00086706737
0.00077324997
0.00068666832
0.00060727164
0.00053487545
0.00046920496
0.00040992636
0.00035666921
0.00030904234
0.00026664522
0.00022907621
0.00019593863
0.00016684531
0.00014142222
0.00011931127
0.0001001725
8.3685791e-05
6.9552078e-05
5.749416e-05
4.7257087e-05
3.8608166e-05
3.133664e-05
2.5253081e-05
2.018848e-05
1.5993309e-05
1.2535885e-05
9.7021813e-06
7.3913817e-06
5.5225089e-06
4.0131088e-06
2.826177e-06
1.8593686e-06
1.1866363e-06
5.5767843e-07
5.0122062e-07
3.5067797e-07
0.0014900025
0.0015617601
0.0016013934
0.0016085576
0.001589954
0.0015504138
0.0014922395
0.0014191282
0.0013356605
0.0012457611
0.0011525468
0.0010585966
0.00096598519
0.00087626775
0.00079054737
0.00070956913
0.00063379647
0.00056347274
0.00049867394
0.00043935191
0.0003853678
0.00033651751
0.00029255119
0.00025318801
0.00021812759
0.00018705886
0.00015966704
0.00013563919
0.00011466882
9.6459424e-05
8.072747e-05
6.7204601e-05
5.563932e-05
4.5798126e-05
3.7466167e-05
3.0447477e-05
2.4564837e-05
1.9659284e-05
1.5589509e-05
1.2230582e-05
9.4738498e-06
7.2231653e-06
5.4005372e-06
3.9277661e-06
2.7669812e-06
1.824256e-06
1.1606173e-06
5.5263593e-07
4.5012016e-07
2.6832962e-07
0.0010738478
0.0011573956
0.0012152559
0.0012478686
0.0012581677
0.0012493425
0.0012229021
0.0011812566
0.0011278007
0.0010657648
0.00099789841
0.00092660979
0.00085397072
0.00078165935
0.0007109742
0.00064289021
0.00057811153
0.00051711704
0.00046020309
0.00040752176
0.00035911258
0.00031492826
0.00027485544
0.00023873136
0.00020635726
0.00017750927
0.00015194718
0.00012942174
0.00010968063
9.2473349e-05
7.7555297e-05
6.4690958e-05
5.3656441e-05
4.4241356e-05
3.625013e-05
2.9502802e-05
2.383539e-05
1.9099835e-05
1.5163748e-05
1.1909533e-05
9.2343734e-06
7.0471654e-06
5.2731831e-06
3.8387581e-06
2.7051647e-06
1.7874774e-06
1.1326391e-06
5.4751634e-07
3.98473e-07
1.9758395e-07
0.00073912942
0.00082344324
0.00088907618
0.00093646442
0.00096577698
0.00097861912
0.00097588628
0.00095898533
0.0009301512
0.00089179507
0.00084615616
0.00079530886
0.00074114317
0.0006852931
0.00062911049
0.00057368359
0.00051986472
0.00046829767
0.00041944705
0.00037362779
0.00033103186
0.0002917514
0.00025579852
0.00022312203
0.00019362154
0.00016715924
0.00014356986
0.00012266903
0.00010426035
8.8141351e-05
7.4108422e-05
6.1960923e-05
5.150447e-05
4.2553529e-05
3.4933351e-05
2.8481342e-05
2.3047928e-05
1.8496948e-05
1.4705773e-05
1.1564826e-05
8.9777038e-06
6.8587955e-06
5.1370238e-06
3.7435157e-06
2.6389179e-06
1.7475841e-06
1.1019987e-06
5.4139699e-07
3.4837983e-07
1.4182819e-07
0.00048278248
0.00055898351
0.00062357896
0.00067640858
0.00071589288
0.00074224868
0.00075573281
0.00075696073
0.00074717251
0.00072795113
0.0007009454
0.00066779362
0.00063007971
0.00058926082
0.00054661783
0.00050324304
0.00046004454
0.00041775595
0.00037695119
0.00033806304
0.00030140241
0.00026717659
0.00023550604
0.00020643955
0.00017996752
0.00015603369
0.00013454534
0.00011538211
9.8403672e-05
8.3456338e-05
7.0378697e-05
5.9006356e-05
4.9175896e-05
4.0728061e-05
3.3510278e-05
2.7378554e-05
2.219882e-05
1.7847777e-05
1.4213382e-05
1.1194775e-05
8.702553e-06
6.6570566e-06
4.9912859e-06
3.6413829e-06
2.5677585e-06
1.7040183e-06
1.0685741e-06
5.3361023e-07
3.0157323e-07
1.0223754e-07
0.00029649374
0.00035911675
0.00041631015
0.00046725956
0.00050954333
0.00054238153
0.00056541457
0.00057861877
0.00058244322
0.00057772554
0.0005655153
0.00054697055
0.00052329697
0.00049568237
0.00046523926
0.0004329711
0.00039975745
0.00036634853
0.00033336663
0.00030131324
0.00027057948
0.00024145806
0.0002141555
0.00018880418
0.00016547369
0.00014418131
0.00012490161
0.00010757504
9.2115653e-05
7.8417921e-05
6.6362715e-05
5.5822467e-05
4.6665574e-05
3.8760069e-05
3.1976612e-05
2.6190846e-05
2.1285191e-05
1.7150097e-05
1.3684903e-05
1.0798148e-05
8.4080238e-06
6.4412862e-06
4.8354777e-06
3.5319419e-06
2.4914006e-06
1.6563888e-06
1.0324319e-06
5.2354984e-07
2.5940032e-07
7.7896502e-08
0.00016949545
0.00021621104
0.00026221781
0.00030628163
0.00034581213
0.00037948167
0.00040645815
0.00042623303
0.00043866987
0.00044399896
0.00044272432
0.00043553388
0.00042323584
0.0004067002
0.00038680471
0.00036439351
0.00034024846
0.00031507158
0.00028947574
0.00026398166
0.00023901973
0.00021493487
0.00019199342
0.00017039102
0.00015026104
0.00013168292
0.00011469032
9.927884e-05
8.5413149e-05
7.3033583e-05
6.2062071e-05
5.2407415e-05
4.3969908e-05
3.6645295e-05
3.0328103e-05
2.4914359e-05
2.0303746e-05
1.6401226e-05
1.3118231e-05
1.0373341e-05
8.0929257e-06
6.2106101e-06
4.6689683e-06
3.4147106e-06
2.4095434e-06
1.6043644e-06
9.937207e-07
5.1074093e-07
2.2266379e-07
6.6033014e-08
9.0526858e-05
0.00012128723
0.00015453455
0.0001888918
0.00022200393
0.00025237375
0.00027891287
0.00030080509
0.00031752406
0.00032885481
0.00033485593
0.00033579963
0.0003321193
0.00032436182
0.00031314087
0.00029909643
0.00028286239
0.00026504143
0.00024618756
0.00022679543
0.00020729478
0.00018804877
0.00016935527
0.00015145023
0.00013451251
0.00011866943
0.00010400291
9.0555536e-05
7.8336758e-05
6.7328682e-05
5.7491586e-05
4.8768982e-05
4.1092177e-05
3.4384311e-05
2.8563845e-05
2.354751e-05
1.9252723e-05
1.5599504e-05
1.2511952e-05
9.91923e-06
7.7564118e-06
5.9644208e-06
4.4913467e-06
3.2894164e-06
2.3220702e-06
1.5478473e-06
9.527428e-07
4.9499856e-07
1.9166674e-07
6.2730988e-08
4.8967338e-05
6.517329e-05
8.5735001e-05
0.00010934093
0.00013405958
0.00015848043
0.00018146917
0.00020208032
0.00021957567
0.0002334572
0.00024346242
0.00024953411
0.00025178624
0.0002504701
0.00024593919
0.0002386145
0.00022895367
0.00021742512
0.00020448666
0.00019056954
0.00017606755
0.00016133008
0.00014665851
0.0001323052
0.00011847457
0.00010532559
9.2975372e-05
8.1503379e-05
7.0955997e-05
6.1351274e-05
5.2683611e-05
4.4928281e-05
3.8045654e-05
3.1985076e-05
2.668832e-05
2.2092603e-05
1.8133142e-05
1.4745258e-05
1.1866064e-05
9.4357061e-06
7.3983811e-06
5.7026759e-06
4.302642e-06
3.1561586e-06
2.2291626e-06
1.4870551e-06
9.0996376e-07
4.7648018e-07
1.6632342e-07
6.3898639e-08
3.5483598e-05
3.9302127e-05
4.8317512e-05
6.1401776e-05
7.7094749e-05
9.4210912e-05
0.00011172391
0.00012870737
0.00014436025
0.00015804661
0.00016930968
0.00017786429
0.00018358129
0.00018646866
0.00018664911
0.00018433505
0.00017980332
0.00017337179
0.00016537886
0.00015616572
0.00014606235
0.00013537708
0.00012438934
0.00011334494
0.00010245378
9.1889365e-05
8.1789711e-05
7.2259417e-05
6.3372445e-05
5.5175422e-05
4.7691229e-05
4.0922679e-05
3.4856156e-05
2.9465085e-05
2.4713157e-05
2.0557231e-05
1.694989e-05
1.3841612e-05
1.1182583e-05
8.9241102e-06
7.0197793e-06
5.4261023e-06
4.1034594e-06
3.0154932e-06
2.1313507e-06
1.4225429e-06
8.6599196e-07
4.5566988e-07
1.4628341e-07
6.6169713e-08
4.2285209e-05
3.6146074e-05
3.5325357e-05
3.8920716e-05
4.5911163e-05
5.5385275e-05
6.6509077e-05
7.8475167e-05
9.052983e-05
0.00010201514
0.00011239232
0.00012124836
0.00012829494
0.0001333628
0.00013639145
0.00013741458
0.00013654291
0.0001339461
0.0001298354
0.00012444747
0.00011803011
0.00011083023
0.00010308444
9.5011927e-05
8.6809438e-05
7.8648249e-05
7.0672695e-05
6.3000039e-05
5.5721404e-05
4.8903475e-05
4.2590783e-05
3.6808329e-05
3.1564408e-05
2.6853475e-05
2.2658932e-05
1.8955758e-05
1.5712902e-05
1.2895406e-05
1.0466223e-05
8.3877243e-06
6.6229393e-06
5.1364173e-06
3.8951127e-06
2.8684969e-06
2.0295307e-06
1.3551685e-06
8.2152133e-07
4.3327719e-07
1.3099472e-07
6.743316e-08
6.3114474e-05
4.9382177e-05
4.0637893e-05
3.6196984e-05
3.5406876e-05
3.7622437e-05
4.222814e-05
4.8585643e-05
5.6056434e-05
6.4041501e-05
7.2007182e-05
7.9498608e-05
8.6147569e-05
9.167654e-05
9.589816e-05
9.8710046e-05
0.00010008591
0.0001000643
9.8736091e-05
9.6231715e-05
9.2708832e-05
8.8340912e-05
8.3307264e-05
7.7784804e-05
7.1941469e-05
6.5931335e-05
5.9891223e-05
5.3938719e-05
4.8171329e-05
4.2666624e-05
3.7483127e-05
3.2661778e-05
2.8227788e-05
2.419273e-05
2.0556736e-05
1.7310688e-05
1.4438315e-05
1.191812e-05
9.7251155e-06
7.832308e-06
6.2119613e-06
4.8365813e-06
3.6797775e-06
2.7168381e-06
1.9249839e-06
1.2860521e-06
7.7728753e-07
4.1011948e-07
1.1973755e-07
6.6870449e-08
9.3096054e-05
7.3885408e-05
5.9087352e-05
4.8201992e-05
4.0861981e-05
3.6650558e-05
3.5157848e-05
3.5924773e-05
3.8458057e-05
4.2263961e-05
4.6872049e-05
5.1850026e-05
5.6815382e-05
6.1444857e-05
6.5480422e-05
6.8731167e-05
7.1071484e-05
7.2436303e-05
7.2814178e-05
7.2238904e-05
7.0780417e-05
6.8535539e-05
6.5619108e-05
6.2155898e-05
5.8273637e-05
5.4097187e-05
4.9743979e-05
4.5320627e-05
4.0920688e-05
3.6623397e-05
3.2493264e-05
2.8580364e-05
2.4921162e-05
2.1539745e-05
1.8449304e-05
1.5653763e-05
1.3149451e-05
1.0926728e-05
8.9715095e-06
7.2666436e-06
5.7931182e-06
4.5310785e-06
3.4606683e-06
2.5628667e-06
1.8194042e-06
1.216535e-06
7.3403567e-07
3.8700399e-07
1.116521e-07
6.4590514e-08
0.00012852627
0.00010562185
8.6455111e-05
7.0670696e-05
5.8106603e-05
4.8525317e-05
4.1689326e-05
3.7303038e-05
3.5019937e-05
3.4468964e-05
3.5273751e-05
3.7065487e-05
3.9494566e-05
4.2241751e-05
4.5027331e-05
4.7617299e-05
4.982652e-05
5.1519171e-05
5.2606837e-05
5.3044655e-05
5.2825988e-05
5.1976161e-05
5.0545759e-05
4.8603889e-05
4.6231805e-05
4.3517159e-05
4.054901e-05
3.7413742e-05
3.4191867e-05
3.0955732e-05
2.7768031e-05
2.4681054e-05
2.1736533e-05
1.8965998e-05
1.6391497e-05
1.4026592e-05
1.1877506e-05
9.9443519e-06
8.2223558e-06
6.7030307e-06
5.3752496e-06
4.2262131e-06
3.2422455e-06
2.4097395e-06
1.7149658e-06
1.1481846e-06
6.925409e-07
3.646692e-07
1.0582998e-07
6.1126516e-08
0.00016665327
0.00014149589
0.000119395
0.00010010235
8.3593074e-05
6.9760283e-05
5.8498659e-05
4.9647092e-05
4.2989506e-05
3.8274158e-05
3.5227679e-05
3.3564435e-05
3.2995969e-05
3.3241259e-05
3.4036342e-05
3.5142195e-05
3.6350606e-05
3.748801e-05
3.8417331e-05
3.9037916e-05
3.9283806e-05
3.9120638e-05
3.8541592e-05
3.7562706e-05
3.6217941e-05
3.4554278e-05
3.2627116e-05
3.0496132e-05
2.8221742e-05
2.5862208e-05
2.3471432e-05
2.1097392e-05
1.8781174e-05
1.6556531e-05
1.4449876e-05
1.2480612e-05
1.0661731e-05
9.0005688e-06
7.4996611e-06
6.1576338e-06
4.9700736e-06
3.9303669e-06
3.0304127e-06
2.2615578e-06
1.6144113e-06
1.0828334e-06
6.5366463e-07
3.4377959e-07
1.0145697e-07
5.7043489e-08
0.00020547671
0.00017918725
0.00015532036
0.00013370449
0.00011439847
9.7383996e-05
8.2649337e-05
7.0135086e-05
5.9730727e-05
5.1288068e-05
4.4630574e-05
3.955903e-05
3.5857935e-05
3.3303469e-05
3.1671807e-05
3.0746756e-05
3.0326363e-05
3.0228324e-05
3.0294032e-05
3.039114e-05
3.0414632e-05
3.0286536e-05
2.9954441e-05
2.9389101e-05
2.8581361e-05
2.7538668e-05
2.6281445e-05
2.4839517e-05
2.324877e-05
2.1548184e-05
1.97773e-05
1.797419e-05
1.6173915e-05
1.440746e-05
1.2701097e-05
1.1076129e-05
9.5489247e-06
8.1311993e-06
6.8304595e-06
5.6505599e-06
4.5923135e-06
3.6541404e-06
2.8326493e-06
2.1234788e-06
1.5211428e-06
1.022648e-06
6.1844004e-07
3.249736e-07
9.7968382e-08
5.2769214e-08
0.00024357728
0.00021699757
0.00019228003
0.00016930707
0.00014818218
0.0001289425
0.00011163709
9.6277539e-05
8.2832189e-05
7.1235161e-05
6.1392021e-05
5.3182318e-05
4.6463024e-05
4.1073821e-05
3.6843271e-05
3.3595036e-05
3.1153844e-05
2.9351002e-05
2.8029223e-05
2.7046541e-05
2.6279157e-05
2.5623164e-05
2.4995201e-05
2.4332115e-05
2.3589778e-05
2.2741257e-05
2.1774498e-05
2.0689749e-05
1.9496898e-05
1.8212858e-05
1.6859149e-05
1.5459759e-05
1.403933e-05
1.2621713e-05
1.1228889e-05
9.8802212e-06
8.5920255e-06
7.3773981e-06
6.2462559e-06
5.2055407e-06
4.259538e-06
3.4102899e-06
2.6580044e-06
2.0017404e-06
1.4392619e-06
9.7017961e-07
5.8814253e-07
3.0892465e-07
9.5135974e-08
4.8592193e-08
0.00027997794
0.00025371644
0.00022883898
0.00020526601
0.00018311892
0.00016246594
0.00014339136
0.00012595209
0.00011017087
9.6042316e-05
8.3536002e-05
7.2596746e-05
6.3145718e-05
5.5083264e-05
4.829284e-05
4.2645343e-05
3.8003697e-05
3.4227505e-05
3.1177595e-05
2.8720178e-05
2.6730435e-05
2.5095373e-05
2.3715881e-05
2.250796e-05
2.1403149e-05
2.034823e-05
1.9304322e-05
1.8245496e-05
1.7157065e-05
1.6033677e-05
1.4877359e-05
1.3695611e-05
1.2499644e-05
1.1302823e-05
1.0119361e-05
8.9632739e-06
7.8476023e-06
6.7838737e-06
5.7817889e-06
4.8490946e-06
3.9916081e-06
3.2133765e-06
2.5168845e-06
1.9035447e-06
1.3735191e-06
9.2836436e-07
5.6431751e-07
2.9638836e-07
9.3055747e-08
4.4712962e-08
0.00031403371
0.00028850925
0.0002639716
0.00024036841
0.00021782192
0.00019641466
0.00017624764
0.00015740323
0.00013993838
0.00012388867
0.0001092698
9.6076446e-05
8.4281828e-05
7.3838606e-05
6.4680897e-05
5.6726778e-05
4.9881268e-05
4.4039681e-05
3.9091242e-05
3.4922727e-05
3.1421961e-05
2.8480979e-05
2.599874e-05
2.3883282e-05
2.2053265e-05
2.0438884e-05
1.8982193e-05
1.7636882e-05
1.6367604e-05
1.5148952e-05
1.3964201e-05
1.2803902e-05
1.1664444e-05
1.0546654e-05
9.4545021e-06
8.393963e-06
7.3720519e-06
6.3960567e-06
5.4729593e-06
4.6090375e-06
3.809628e-06
3.0790427e-06
2.4205692e-06
1.8367495e-06
1.3291295e-06
9.0043458e-07
5.4873693e-07
2.8820884e-07
9.205092e-08
4.127536e-08
0.00034534538
0.00032082598
0.00029697014
0.00027374578
0.00025126591
0.00022961648
0.00020890272
0.0001892182
0.00017063862
0.00015322464
0.00013702242
0.0001220618
0.00010835496
9.5896059e-05
8.4661821e-05
7.4612529e-05
6.5693566e-05
5.7837406e-05
5.0966061e-05
4.4993792e-05
3.9829983e-05
3.5381999e-05
3.1557914e-05
2.8268977e-05
2.543172e-05
2.2969629e-05
2.0814345e-05
1.8906392e-05
1.719544e-05
1.564017e-05
1.4207795e-05
1.2873315e-05
1.1618589e-05
1.043131e-05
9.3039327e-06
8.232645e-06
7.216405e-06
6.2560929e-06
5.3537939e-06
4.5122235e-06
3.7342947e-06
3.0228334e-06
2.3803902e-06
1.8093168e-06
1.3114196e-06
8.8971411e-07
5.4327434e-07
2.8527498e-07
9.2545607e-08
3.8373641e-08
0.00037369142
0.00035032711
0.00032736782
0.00030479741
0.00028271443
0.00026120185
0.00024036122
0.00022028776
0.00020106494
0.00018276649
0.00016545647
0.00014918735
0.00013399813
0.00011991344
0.00010694305
9.5081921e-05
8.4310528e-05
7.4595739e-05
6.5892115e-05
5.8143591e-05
5.128548e-05
4.5246672e-05
3.9951936e-05
3.532421e-05
3.1286782e-05
2.7765249e-05
2.4689198e-05
2.1993548e-05
1.9619518e-05
1.7515238e-05
1.5635989e-05
1.394415e-05
1.2408865e-05
1.1005514e-05
9.7150371e-06
8.523176e-06
7.4196847e-06
6.3975603e-06
5.4523258e-06
4.5813957e-06
3.7835407e-06
3.0584703e-06
2.4065018e-06
1.8284664e-06
1.3252674e-06
8.9927347e-07
5.496915e-07
2.8842411e-07
9.4951298e-08
3.6055971e-08
0.00039897535
0.00037682495
0.00035487593
0.00033312549
0.00031165567
0.000290543
0.00026988106
0.00024976077
0.00023026611
0.00021147546
0.00019346148
0.00017628932
0.00016001478
0.00014468294
0.00013032736
0.00011696931
0.00010461747
9.3267858e-05
8.2904217e-05
7.3498798e-05
6.5013454e-05
5.7401055e-05
5.060714e-05
4.4571726e-05
3.9231195e-05
3.4520163e-05
3.0373258e-05
2.6726719e-05
2.3519778e-05
2.0695767e-05
1.8202938e-05
1.5994989e-05
1.4031317e-05
1.227702e-05
1.0702691e-05
9.2840482e-06
8.00145e-06
6.8393413e-06
5.7856699e-06
4.8313167e-06
3.9695623e-06
3.1956262e-06
2.5062595e-06
1.899535e-06
1.3743325e-06
9.3144014e-07
5.6934003e-07
2.9829746e-07
9.9580509e-08
3.4333195e-08
0.0004211803
0.00040023263
0.00037932826
0.00035847612
0.0003377417
0.00031719372
0.00029691576
0.00027699139
0.00025750063
0.00023852107
0.00022012758
0.00020239082
0.00018537551
0.00016913917
0.00015373095
0.00013919067
0.00012554801
0.00011282189
0.00010102022
9.0139956e-05
8.0167398e-05
7.10789e-05
6.2841802e-05
5.5415629e-05
4.8753486e-05
4.2803569e-05
3.7510751e-05
3.281814e-05
2.866857e-05
2.5005948e-05
2.1776426e-05
1.8929346e-05
1.6417969e-05
1.4199953e-05
1.2237619e-05
1.0498016e-05
8.9528072e-06
7.578035e-06
6.3537775e-06
5.2637519e-06
4.2948908e-06
3.4369297e-06
2.6820048e-06
2.0243937e-06
1.4599736e-06
9.8710078e-07
6.0274351e-07
3.1513092e-07
1.0656659e-07
3.3187196e-08
0.00044033935
0.00042052978
0.0004006424
0.00038069725
0.00036074412
0.00034084385
0.00032106967
0.00030149651
0.00028219825
0.00026324852
0.00024472038
0.00022668518
0.00020921108
0.00019236189
0.00017619591
0.0001607649
0.00014611301
0.00013227594
0.00011928022
0.00010714279
9.587074e-05
8.5461397e-05
7.5902625e-05
6.7173432e-05
5.9244791e-05
5.2080684e-05
4.5639304e-05
3.9874365e-05
3.4736466e-05
3.0174438e-05
2.6136643e-05
2.2572148e-05
1.9431758e-05
1.6668871e-05
1.4240139e-05
1.210594e-05
1.0230657e-05
8.5828011e-06
7.1349761e-06
5.8637384e-06
4.7493678e-06
3.7755915e-06
2.9292644e-06
2.2001387e-06
1.5803405e-06
1.0651128e-06
6.49251e-07
3.3858833e-07
1.1582117e-07
3.2577782e-08
0.00045648999
0.00043771182
0.00041876453
0.00039967888
0.00038049049
0.00036125297
0.00034202991
0.00032288761
0.00030389308
0.00028511452