/*--------------------------------*- C++ -*----------------------------------*\
  =========                 |
  \\      /  F ield         | OpenFOAM: The Open Source CFD Toolbox
   \\    /   O peration     | Website:  https://openfoam.org
    \\  /    A nd           | Version:  6
     \\/     M anipulation  |
\*---------------------------------------------------------------------------*/
FoamFile
{
    version     2.0;
    format      ascii;
    class       volScalarField;
    location    "17";
    object      p;
}
// * * * * * * * * * * * * * * * * * * * * * * * * * * * * * * * * * * * * * //

dimensions      [0 2 -2 0 0 0 0];

internalField   nonuniform List<scalar> 
9200
(
-0.41865702
-0.40666359
-0.39602273
-0.38661645
-0.37744865
-0.3685281
-0.35993049
-0.35161212
-0.34349113
-0.33548006
-0.32749014
-0.3194371
-0.31124918
-0.30287533
-0.29429617
-0.28554202
-0.27668998
-0.26783287
-0.25994058
-0.25715138
-0.43733559
-0.42282655
-0.41019541
-0.399235
-0.38866176
-0.37844819
-0.36865692
-0.3592092
-0.34998706
-0.34087384
-0.33175931
-0.32254672
-0.31316163
-0.30355871
-0.29372746
-0.283696
-0.27350395
-0.26316535
-0.25332793
-0.24606998
-0.45640666
-0.43937312
-0.42481177
-0.41237809
-0.40045932
-0.38897174
-0.37795215
-0.36727904
-0.35679759
-0.34636825
-0.33587186
-0.3252165
-0.31434524
-0.30323936
-0.29191744
-0.28042993
-0.26883168
-0.25714959
-0.24577
-0.23577273
-0.47540542
-0.45588122
-0.43946679
-0.42562621
-0.41237858
-0.39956667
-0.38719382
-0.37509704
-0.36309579
-0.35104722
-0.33884864
-0.32644104
-0.31381202
-0.30099239
-0.28804758
-0.27506546
-0.26213136
-0.24930122
-0.23684187
-0.22548756
-0.49366107
-0.47176662
-0.4536267
-0.43845706
-0.42388112
-0.40965796
-0.39575931
-0.38199501
-0.36818408
-0.35421246
-0.34002792
-0.32563532
-0.31109057
-0.29648817
-0.281945
-0.2675839
-0.25351196
-0.23980013
-0.22664083
-0.21454907
-0.51030222
-0.48626593
-0.46658578
-0.45017336
-0.43424898
-0.41849063
-0.40285476
-0.38715487
-0.3712491
-0.35509291
-0.33871984
-0.32222341
-0.30573929
-0.28942388
-0.27343335
-0.25790692
-0.24295104
-0.22862763
-0.21506669
-0.20261678
-0.52427486
-0.49844535
-0.47747045
-0.45990926
-0.44260067
-0.42516182
-0.40756707
-0.38968017
-0.37144759
-0.35293617
-0.33429328
-0.31571225
-0.29740341
-0.27956745
-0.26237512
-0.24595574
-0.23039015
-0.21570929
-0.20198162
-0.18941796
-0.53436777
-0.50722787
-0.48527595
-0.46668248
-0.44796168
-0.42870964
-0.40896729
-0.38870614
-0.3680124
-0.34709924
-0.3262425
-0.30573054
-0.28582883
-0.26675482
-0.24866504
-0.23165372
-0.21575675
-0.20096103
-0.18727396
-0.17478719
-0.53919405
-0.51128966
-0.48866288
-0.46910132
-0.4489026
-0.42771112
-0.40569999
-0.38300886
-0.35990291
-0.33675391
-0.31395442
-0.29185988
-0.27075578
-0.25084238
-0.23223485
-0.21497417
-0.19904201
-0.18437874
-0.17093482
-0.15869795
-0.53737025
-0.50917195
-0.48603431
-0.46544974
-0.44365736
-0.42044047
-0.39617314
-0.37120837
-0.34599983
-0.32105455
-0.29683816
-0.27372278
-0.2519685
-0.23172502
-0.21304683
-0.195915
-0.18025947
-0.16598159
-0.15298226
-0.14115731
-0.29900348
-0.30397396
-0.30662282
-0.30739167
-0.30712702
-0.30602724
-0.30417676
-0.30166569
-0.2985673
-0.29493611
-0.29081518
-0.28624063
-0.28124397
-0.27585352
-0.27009573
-0.26399795
-0.25759008
-0.2508905
-0.24389261
-0.23668814
-0.301961
-0.30647411
-0.30878896
-0.30932325
-0.30886467
-0.30760151
-0.3056159
-0.30299376
-0.29980442
-0.29609931
-0.29191893
-0.28729722
-0.28226375
-0.27684478
-0.27106397
-0.2649477
-0.25853438
-0.25184096
-0.24474102
-0.23719563
-0.30771668
-0.31133877
-0.31300419
-0.31308031
-0.31224157
-0.31065863
-0.30840939
-0.30557161
-0.30220701
-0.2983609
-0.29406871
-0.28935994
-0.28426028
-0.27879203
-0.27297375
-0.26682883
-0.26040822
-0.25372879
-0.24645317
-0.23827494
-0.31598973
-0.31834348
-0.31907287
-0.31847682
-0.31707373
-0.31501198
-0.31236478
-0.3091989
-0.30556551
-0.30150139
-0.29703469
-0.29218854
-0.2869828
-0.28143397
-0.27555376
-0.26935972
-0.26291457
-0.25624215
-0.2487467
-0.2397074
-0.32642939
-0.32720889
-0.32675358
-0.3252864
-0.32314066
-0.3204415
-0.31725825
-0.31364533
-0.3096416
-0.30527392
-0.30056139
-0.29551834
-0.29015675
-0.28448586
-0.27850899
-0.27223452
-0.26573137
-0.25903899
-0.25130545
-0.24125464
-0.33867645
-0.33764901
-0.33580188
-0.33328443
-0.33022911
-0.32673974
-0.32288438
-0.31870566
-0.31422932
-0.3094695
-0.3044338
-0.29912645
-0.29354979
-0.28770386
-0.28158227
-0.27518108
-0.26856615
-0.26179703
-0.25380939
-0.24267107
-0.35241777
-0.34941348
-0.34600783
-0.34228608
-0.33817332
-0.33375615
-0.32910586
-0.32425239
-0.31920552
-0.313966
-0.30852867
-0.30288512
-0.29702563
-0.29093925
-0.28460936
-0.27801916
-0.271224
-0.26430458
-0.25605835
-0.24386367
-0.36741748
-0.36231274
-0.35722001
-0.35217254
-0.34688647
-0.34143434
-0.33589068
-0.33027246
-0.32457331
-0.31877779
-0.3128644
-0.30680827
-0.30058365
-0.29416508
-0.28752413
-0.28063359
-0.2735434
-0.26637791
-0.25792124
-0.24490156
-0.3835148
-0.37620825
-0.36932468
-0.3628573
-0.35630699
-0.3497311
-0.34320944
-0.33674485
-0.33031129
-0.32387326
-0.31738863
-0.31081121
-0.3040933
-0.29718641
-0.29003735
-0.28258992
-0.27485685
-0.26694188
-0.25765028
-0.24348661
-0.40061078
-0.39099
-0.38220694
-0.37421967
-0.36630109
-0.35849274
-0.35087872
-0.3434447
-0.33614176
-0.32891217
-0.3216926
-0.31441745
-0.30702242
-0.29944536
-0.29162193
-0.28348163
-0.27496259
-0.26586468
-0.2546031
-0.23818502
-0.22846735
-0.21809712
-0.20761227
-0.19708277
-0.18643951
-0.17571993
-0.16497892
-0.15425106
-0.1435646
-0.13294858
-0.12243094
-0.1120379
-0.10179534
-0.091730026
-0.081870524
-0.072248111
-0.062897712
-0.053858578
-0.045174596
-0.036894112
-0.029069157
-0.021754001
-0.015003026
-0.0088680256
-0.0033951124
0.0013784783
0.0054273437
0.0087402729
0.011321726
0.013192312
0.014388406
0.014961328
0.014976639
0.014513835
0.013665846
0.012536725
0.011235639
0.0098668291
0.0085180118
0.0072517073
0.0061028279
0.0050828858
0.0041866946
0.0034019807
0.0027070886
0.0020979861
0.0015126674
0.0010695787
0.00033698185
0.0005607523
-0.22980175
-0.21899856
-0.20840835
-0.19791669
-0.18727291
-0.17653834
-0.16578962
-0.15505696
-0.14436525
-0.13374396
-0.12322108
-0.11282231
-0.10257303
-0.092499627
-0.082630231
-0.072995697
-0.063630558
-0.054573731
-0.04586885
-0.037564112
-0.029711525
-0.022365468
-0.015580568
-0.0094089882
-0.0038973091
0.00091670052
0.0050070795
0.0083620756
0.010985655
0.012897987
0.014135022
0.0147476
0.014800664
0.01437292
0.013556412
0.012454393
0.011175542
0.00982408
0.0084881603
0.007231052
0.0060885237
0.0050728865
0.0041796054
0.0033968933
0.0027034236
0.0020953908
0.0015109268
0.0010685027
0.00033670389
0.00056002099
-0.23253909
-0.22081169
-0.21001207
-0.19964268
-0.18901323
-0.17824798
-0.16748498
-0.15674322
-0.14603856
-0.13540257
-0.12486434
-0.11444864
-0.10418009
-0.094084534
-0.084189476
-0.074525036
-0.065125048
-0.056027812
-0.047276478
-0.038918942
-0.031007143
-0.023595655
-0.016739574
-0.010491789
-0.0048998189
-2.5248255e-06
0.0041729747
0.007613792
0.010322852
0.012319403
0.013638542
0.014330188
0.014458131
0.014099618
0.013345034
0.012296132
0.011060688
0.0097429261
0.0084319092
0.0071924256
0.0060619653
0.0050544321
0.0041665765
0.0033875661
0.0026967088
0.0020906467
0.0015077411
0.0010665715
0.00033623785
0.00055858935
-0.23641403
-0.22320172
-0.21209196
-0.20201006
-0.19145232
-0.1806535
-0.16988454
-0.15914517
-0.14843096
-0.13777859
-0.12722127
-0.11678288
-0.10648712
-0.096359551
-0.086427164
-0.076719295
-0.067268935
-0.058113599
-0.049295768
-0.040862877
-0.032866694
-0.025361977
-0.018404389
-0.012047767
-0.0063409199
-0.0013242514
0.0029734336
0.0065375503
0.0093694376
0.011486931
0.012923849
0.013728804
0.013964013
0.013704736
0.013039075
0.012066653
0.010893901
0.0096249555
0.0083500982
0.0071362484
0.0060233542
0.0050276168
0.0041476517
0.0033740187
0.0026869515
0.0020837511
0.0015031095
0.0010637683
0.00033561885
0.00055642916
-0.24106503
-0.22578754
-0.21426558
-0.20469997
-0.19432358
-0.18350661
-0.17275459
-0.16204816
-0.15134377
-0.14068444
-0.13011303
-0.11965395
-0.1093299
-0.099166594
-0.089191057
-0.079432112
-0.06992198
-0.060697364
-0.051799981
-0.043276667
-0.035178878
-0.027561448
-0.020480582
-0.013991143
-0.008143426
-0.0029797034
0.0014691014
0.0051861983
0.0081708041
0.010438838
0.012022413
0.01296849
0.013337413
0.013202113
0.012647968
0.011771958
0.010678723
0.0094720961
0.0082436895
0.0070629571
0.0059728685
0.0049925045
0.0041228494
0.0033562513
0.0026741437
0.0020746897
0.0014970235
0.0010600658
0.00033489259
0.00055350102
-0.24599194
-0.22818891
-0.21616586
-0.20735629
-0.19732766
-0.18654087
-0.17583823
-0.16521005
-0.15455481
-0.14391406
-0.13334535
-0.12287768
-0.11253355
-0.10233909
-0.092322105
-0.082511559
-0.07293927
-0.063641289
-0.054658618
-0.046037439
-0.037828777
-0.030087408
-0.022869972
-0.016232326
-0.010226328
-0.0048963172
-0.00027566976
0.0036161761
0.0067758053
0.0092167088
0.010968858
0.012077247
0.012600143
0.012607975
0.012183153
0.011419653
0.010419909
0.0092871466
0.0081142422
0.006973382
0.0059109386
0.0049493177
0.0040922865
0.003334324
0.0026583125
0.002063465
0.0014894851
0.0010554346
0.0003341226
0.00054975361
-0.25065212
-0.23015527
-0.21752435
-0.20960659
-0.20015399
-0.18952584
-0.17892028
-0.16841631
-0.15786447
-0.14728611
-0.13675017
-0.12629592
-0.11594863
-0.10573537
-0.095685367
-0.085828664
-0.076197372
-0.066827295
-0.057758938
-0.049037914
-0.040714789
-0.03284419
-0.025483084
-0.018688254
-0.012513133
-0.0070042562
-0.0021977029
0.001884063
0.0052345268
0.0078642596
0.0098006616
0.011086479
0.011777786
0.011942495
0.011659981
0.011021009
0.010125462
0.0090756196
0.0079654469
0.0068699293
0.0058390956
0.0048990099
0.0040565442
0.0033085811
0.0026396543
0.0020501714
0.0014805474
0.0010498609
0.00033340614
0.00054511972
-0.25464332
-0.23203232
-0.21856646
-0.21124592
-0.20254226
-0.19232159
-0.1819075
-0.17156013
-0.16115652
-0.150688
-0.1402195
-0.12980273
-0.11947064
-0.10925281
-0.099180297
-0.089284988
-0.079600067
-0.070161614
-0.061009928
-0.052190202
-0.043752567
-0.035751434
-0.028243988
-0.021287835
-0.014937931
-0.0092430439
-0.004242108
3.9112326e-05
0.0035906183
0.0064196174
0.008550525
0.010023561
0.010892535
0.011222931
0.011091224
0.010584957
0.0098012573
0.0088411374
0.0077993932
0.0067537204
0.0057578929
0.0048418254
0.0040157117
0.0032790368
0.0026181509
0.002034767
0.0014701799
0.0010432733
0.00033283794
0.00053951754
-0.25546321
-0.23385876
-0.21984501
-0.21213291
-0.20398005
-0.19445037
-0.18442264
-0.17430559
-0.16410989
-0.1538205
-0.14348245
-0.13315393
-0.12287885
-0.11269198
-0.10262707
-0.092718561
-0.083001663
-0.073513591
-0.064295081
-0.055391329
-0.046852272
-0.03873216
-0.031088302
-0.023978944
-0.017460346
-0.01158333
-0.0063896056
-0.0019083085
0.0018468262
0.0048792098
0.007209722
0.0088755208
0.0099278037
0.010429612
0.010454802
0.010088081
0.0094240185
0.0085621697
0.0075976072
0.0066100394
0.0056563964
0.0047701271
0.0039647248
0.0032424697
0.0025918214
0.0020160643
0.0014577056
0.0010352961
0.00033229642
0.00053292221
-0.24500516
-0.23253769
-0.2205494
-0.2114977
-0.20336304
-0.19472668
-0.18543209
-0.17580615
-0.1660216
-0.15609729
-0.1460574
-0.13595856
-0.12585659
-0.11579615
-0.10581752
-0.095960604
-0.086265371
-0.076772637
-0.067525574
-0.058570905
-0.04995944
-0.041745925
-0.033988103
-0.026744886
-0.020073712
-0.01402726
-0.0086498695
-0.0039740346
-1.742658e-05
0.0032191185
0.0057522665
0.0076153387
0.0088562873
0.009535472
0.009724387
0.009505461
0.00897111
0.0082192717
0.007344464
0.0064271985
0.005526453
0.0046785702
0.0039002511
0.0031968811
0.0025595019
0.001993417
0.0014427595
0.0010258602
0.00033155237
0.00052553607
-0.22314546
-0.22610335
-0.21972578
-0.2100081
-0.20154032
-0.19339443
-0.18463612
-0.17540647
-0.16595918
-0.15634976
-0.14659448
-0.13674459
-0.12685879
-0.1169854
-0.10716699
-0.097445278
-0.087861808
-0.078458572
-0.069279432
-0.06037141
-0.051785364
-0.043575996
-0.035801084
-0.028519848
-0.021790458
-0.015666877
-0.010195332
-0.0054107847
-0.0013338215
0.0020316122
0.0046992138
0.0066997242
0.0080788112
0.0088942821
0.0092140343
0.0091155365
0.0086856481
0.0080179029
0.0072053192
0.0063303869
0.0054565716
0.0046254115
0.0038579953
0.0031625975
0.0025319615
0.0019717936
0.0014276326
0.0010149102
0.00033149954
0.00051725254
-0.21106704
-0.21491265
-0.21038511
-0.20103913
-0.19299272
-0.18567958
-0.17781636
-0.16940596
-0.16072203
-0.15183198
-0.14274456
-0.13350701
-0.12418014
-0.11481594
-0.10546064
-0.09615969
-0.086958295
-0.077901691
-0.069036337
-0.060411096
-0.05207787
-0.044091653
-0.036509891
-0.029391063
-0.022792468
-0.01676738
-0.011361827
-0.0066113162
-0.0025379073
0.00085200387
0.0035687786
0.0056391894
0.007104654
0.0080187424
0.008445194
0.0084572044
0.0081370254
0.0075733646
0.006854805
0.0060606367
0.0052529619
0.0044737874
0.0037460631
0.0030803994
0.002472339
0.0019287481
0.0013995758
0.00099419772
0.0003310198
0.00050392677
-0.20058911
-0.20187537
-0.19856045
-0.19107844
-0.18400362
-0.1774622
-0.17044853
-0.16286489
-0.1549462
-0.14677731
-0.13837109
-0.1297694
-0.12103146
-0.11221086
-0.10335583
-0.094513928
-0.085732697
-0.077059675
-0.068543253
-0.060233699
-0.05218372
-0.044448507
-0.037085185
-0.030151566
-0.023704185
-0.017795739
-0.012472153
-0.0077695629
-0.0037115566
-0.00030702193
0.0024510258
0.0045853188
0.0061328738
0.007142748
0.0076741098
0.0077953946
0.0075838162
0.0071230314
0.0064972413
0.0057827931
0.0050407062
0.0043135869
0.0036261929
0.0029912568
0.0024070043
0.0018810837
0.0013685014
0.00097056277
0.00033212705
0.00048698186
-0.18902262
-0.1879101
-0.1850611
-0.17969246
-0.17393752
-0.16821817
-0.16207162
-0.15538744
-0.14830898
-0.14092269
-0.13325703
-0.12535257
-0.11726494
-0.10904806
-0.10075179
-0.092425309
-0.084117949
-0.075879139
-0.067758948
-0.059808896
-0.052082425
-0.044634921
-0.037523233
-0.030804575
-0.024534804
-0.018766129
-0.013544467
-0.0089066785
-0.0048779888
-0.001469909
0.0013210056
0.00351324
0.0051391488
0.0062429583
0.0068788967
0.0071102316
0.0070087268
0.0066526252
0.0061214921
0.0054886213
0.0048139525
0.004140728
0.0034955246
0.0028931473
0.0023344854
0.0018278193
0.0013335603
0.00094395189
0.00033357704
0.00046720971
-0.17642302
-0.17375743
-0.17101628
-0.16734808
-0.16293967
-0.15810322
-0.15282454
-0.14705961
-0.14086314
-0.13430231
-0.12742077
-0.12026146
-0.11287545
-0.10531504
-0.097630754
-0.089872647
-0.082091052
-0.074336607
-0.066660566
-0.05911535
-0.051754886
-0.044634597
-0.037810959
-0.031340536
-0.025278466
-0.019676444
-0.014580359
-0.010027788
-0.0060456104
-0.0026480207
0.00016475503
0.0024067387
0.0041053367
0.005299636
0.0060386583
0.0063803093
0.0063907385
0.0061425506
0.0057103287
0.0051638649
0.0045615622
0.0039469318
0.0033481405
0.0027819674
0.0022519845
0.0017671264
0.0012934959
0.00091380877
0.00033451963
0.00044496658
-0.16265138
-0.15951486
-0.15700433
-0.15458388
-0.15136993
-0.1474374
-0.14301278
-0.13813833
-0.1328177
-0.12709046
-0.12100668
-0.11461258
-0.10795498
-0.10108289
-0.094045981
-0.086894096
-0.079677526
-0.07244714
-0.065254569
-0.058152505
-0.051194887
-0.044436827
-0.037934186
-0.031742715
-0.025916721
-0.020507301
-0.015560235
-0.011113741
-0.0071962849
-0.0038247012
-0.0010028907
0.0012786262
0.0030421465
0.0043214043
0.0051600063
0.0056103393
0.005732821
0.0055942658
0.0052640053
0.0048079299
0.0042824424
0.0037308981
0.0031827391
0.002656544
0.0021585034
0.0016982392
0.0012476651
0.00087986121
0.00033432493
0.00042057299
-0.14814821
-0.1453749
-0.14331795
-0.14179245
-0.13955214
-0.13648257
-0.13287903
-0.12884285
-0.12436073
-0.11944875
-0.11415406
-0.10852382
-0.10260125
-0.09643117
-0.090060793
-0.083538542
-0.076913591
-0.070235993
-0.063556819
-0.056928259
-0.050403645
-0.044037304
-0.037884131
-0.03199881
-0.026434634
-0.02124195
-0.016466299
-0.012146403
-0.0083121728
-0.0049829445
-0.0021661826
0.00014310446
0.0019620758
0.0033190038
0.0042519304
0.0048075867
0.0050405555
0.0050117485
0.0047850517
0.004422137
0.0039769984
0.0034924193
0.0029987639
0.0025161809
0.0020533307
0.0016205531
0.0011955015
0.00084187735
0.00033231889
0.000394384
-0.13364578
-0.13159543
-0.13010849
-0.12923889
-0.1277651
-0.12547283
-0.12263309
-0.11936949
-0.11566862
-0.11153206
-0.10699871
-0.10211304
-0.096914639
-0.091443735
-0.085743872
-0.079860815
-0.073841579
-0.067734396
-0.061588821
-0.055455709
-0.049387092
-0.043435954
-0.037655792
-0.032099891
-0.026820273
-0.021866322
-0.017283138
-0.013109748
-0.0093772902
-0.006107376
-0.0033108165
-0.00098693244
0.00087639616
0.0023019858
0.0033222496
0.0039781805
0.0043184636
0.004398045
0.0042752321
0.0040072179
0.003645208
0.0032309885
0.0027954512
0.0023600346
0.0019356495
0.0015333806
0.0011363824
0.0007995642
0.00032779739
0.00036674266
-0.11965891
-0.11835735
-0.11744504
-0.11708231
-0.11621268
-0.11459386
-0.1124425
-0.10987753
-0.10689044
-0.10347525
-0.099661226
-0.095487166
-0.090988375
-0.086200298
-0.081161982
-0.075915491
-0.070504738
-0.064975237
-0.059374147
-0.053750179
-0.048153366
-0.042634765
-0.037246001
-0.032038581
-0.02706295
-0.022367259
-0.017995922
-0.013988007
-0.0103756
-0.0071822886
-0.004421922
-0.0020978514
-0.00020277815
0.0012807823
0.0023796501
0.003129072
0.0035718279
0.0037568899
0.0037369142
0.0035644106
0.0032874496
0.0029463951
0.0025722397
0.0021873864
0.0018047132
0.0014360587
0.001069701
0.00075258878
0.00032009233
0.0003379423
-0.10644515
-0.10578092
-0.10537943
-0.10542223
-0.10503373
-0.10398293
-0.10243462
-0.10049041
-0.098144945
-0.095388697
-0.092242104
-0.088736799
-0.084902904
-0.080770861
-0.076374735
-0.071752113
-0.06694301
-0.061989455
-0.056935451
-0.051826832
-0.046710975
-0.041636441
-0.036652502
-0.031808492
-0.027152935
-0.022732458
-0.018590493
-0.014765852
-0.011291243
-0.0081918699
-0.0054842485
-0.0031753925
-0.0012625069
0.00026679313
0.0014338716
0.0022683023
0.0028070161
0.0030930578
0.0031734195
0.0030957843
0.0029047865
0.0026389589
0.0023289547
0.0019977803
0.0016599443
0.0013280153
0.00099491206
0.00070059915
0.00030861091
0.00030820373
-0.094126166
-0.093956199
-0.093969773
-0.094333161
-0.094326442
-0.093744044
-0.092710449
-0.091307196
-0.089529015
-0.087364544
-0.084826794
-0.081939958
-0.078728397
-0.075217317
-0.071435526
-0.067415631
-0.063193135
-0.058805954
-0.054294298
-0.049700493
-0.045068666
-0.040444348
-0.035873995
-0.03140436
-0.027081702
-0.022950796
-0.019053779
-0.015428876
-0.012109056
-0.0091207488
-0.00648271
-0.0042051894
-0.0022894991
-0.00072803102
0.00049535429
0.0014047154
0.0020312575
0.0024122022
0.0025889233
0.0026041946
0.0024989654
0.0023095596
0.0020658535
0.0017910722
0.0015009794
0.001208806
0.00091155983
0.00064324279
0.00029285967
0.00027766447
-0.082751331
-0.082942922
-0.083270561
-0.083875677
-0.084164729
-0.083959294
-0.083353794
-0.082411581
-0.081125721
-0.079483383
-0.077491512
-0.075167333
-0.072529322
-0.069597341
-0.066394845
-0.0629492
-0.059290988
-0.055453542
-0.051472775
-0.047386986
-0.043236538
-0.039063452
-0.034910924
-0.030822737
-0.026842523
-0.023012869
-0.019374282
-0.015964046
-0.012815009
-0.0099544031
-0.0074027697
-0.0051731227
-0.0032704279
-0.0016914559
-0.00042497617
0.00054779413
0.0012525272
0.0017207848
0.0019884244
0.0020932882
0.0020724503
0.0019596905
0.0017836882
0.0015674938
0.0013277262
0.0010781622
0.00081931279
0.00058019553
0.00027246209
0.00024638146
-0.072325643
-0.072769768
-0.073320609
-0.074095559
-0.074604335
-0.074693425
-0.07443445
-0.073875724
-0.073008289
-0.071817943
-0.070306698
-0.06848564
-0.066367665
-0.063967424
-0.061303108
-0.058396804
-0.055273986
-0.05196311
-0.048495445
-0.04490487
-0.041227569
-0.037501638
-0.033766624
-0.030062961
-0.026431301
-0.022911699
-0.019542683
-0.016360229
-0.01339666
-0.010679569
-0.0082308064
-0.0060656474
-0.004192215
-0.0026112018
-0.0013158978
-0.00029248045
0.00047945142
0.0010260208
0.0013777265
0.0015675165
0.0016284621
0.0015915156
0.0014837737
0.0013277225
0.0011404275
0.00093604691
0.00071800402
0.00051120015
0.00024716974
0.00021434674
-0.06282862
-0.063440007
-0.064138685
-0.065021485
-0.065684026
-0.065994979
-0.066008333
-0.065760358
-0.065240475
-0.064433441
-0.063337351
-0.061958113
-0.060303641
-0.05838376
-0.056211686
-0.053804405
-0.051182312
-0.048368903
-0.045390621
-0.042276681
-0.039058799
-0.035770829
-0.032448335
-0.029128075
-0.025847384
-0.022643451
-0.019552473
-0.016608738
-0.013843637
-0.011284668
-0.0089544929
-0.0068701297
-0.0050423285
-0.0034752005
-0.0021661065
-0.0011057996
-0.00027882247
0.00033578799
0.00076338366
0.0010321155
0.0011709888
0.0012079059
0.0011680403
0.0010729431
0.00093972274
0.00078271238
0.00060767442
0.0004361105
0.00021686825
0.00018151369
-0.054223999
-0.054937426
-0.055724394
-0.056664593
-0.057425772
-0.057896349
-0.058116649
-0.058113469
-0.057875266
-0.057386301
-0.056641719
-0.055643257
-0.054394618
-0.052901386
-0.051172284
-0.049219567
-0.047058792
-0.044708604
-0.042190632
-0.039529353
-0.036751866
-0.033887583
-0.030967848
-0.028025476
-0.025094203
-0.022208038
-0.019400513
-0.016703859
-0.014148118
-0.011760237
-0.0095631935
-0.0075752072
-0.0058091059
-0.0042718801
-0.0029644609
-0.0018817321
-0.0010127912
-0.00034150013
0.00015261141
0.00049305281
0.00070476709
0.00081245046
0.00083906799
0.0008048961
0.00072670192
0.00061875549
0.00048861664
0.00035493774
0.00018158121
0.00014782946
-0.046465155
-0.04723192
-0.048061893
-0.049020487
-0.04983607
-0.050414628
-0.050786013
-0.0509697
-0.050953847
-0.050722815
-0.05026972
-0.049593136
-0.048693395
-0.047572553
-0.046235466
-0.044690186
-0.042947851
-0.041022553
-0.038931298
-0.036693917
-0.034332908
-0.031873176
-0.029341724
-0.026767252
-0.02417968
-0.021609581
-0.019087522
-0.01664333
-0.014305306
-0.012099399
-0.0100484
-0.0081711961
-0.0064821287
-0.0049905032
-0.003700281
-0.0026099804
-0.0017128096
-0.00099706677
-0.00044684504
-4.3063221e-05
0.00023522978
0.00040943801
0.00050009638
0.00052590984
0.00050294934
0.00044516654
0.00036141731
0.00026789511
0.00014147498
0.00011326898
-0.039499622
-0.040284454
-0.041124232
-0.042072468
-0.042908355
-0.043553412
-0.044029567
-0.044350746
-0.044505372
-0.044478436
-0.044261854
-0.043851976
-0.043246612
-0.042445053
-0.041448992
-0.040262917
-0.038894092
-0.037352511
-0.035650904
-0.03380472
-0.031832014
-0.029753275
-0.027591168
-0.02537022
-0.023116413
-0.020856704
-0.018618452
-0.016428786
-0.014313903
-0.012298334
-0.01040421
-0.0086505552
-0.0070526619
-0.0056215736
-0.0043637157
-0.0032807049
-0.0023693687
-0.0016220029
-0.0010268952
-0.0005691223
-0.00023158876
3.80327e-06
0.00015500578
0.00023890786
0.00027056973
0.00026336656
0.0002269938
0.00017543724
9.6865476e-05
7.7865806e-05
-0.033272428
-0.034050737
-0.034876989
-0.035794771
-0.036625766
-0.037305097
-0.037848755
-0.038266531
-0.038547537
-0.038677807
-0.038648762
-0.03845534
-0.038093619
-0.037560867
-0.036856337
-0.035981642
-0.034940803
-0.033740268
-0.032388973
-0.03089837
-0.029282387
-0.027557311
-0.025741617
-0.023855719
-0.021921647
-0.019962654
-0.018002739
-0.016066097
-0.014176523
-0.012356756
-0.010627823
-0.009008388
-0.0075141467
-0.0061573073
-0.0049461808
-0.0038849206
-0.0029734447
-0.0022075657
-0.0015793493
-0.0010777067
-0.00068919706
-0.00039897083
-0.00019173922
-5.2613049e-05
3.2191695e-05
7.522767e-05
8.6620855e-05
7.829058e-05
4.8226717e-05
4.1736538e-05
-0.027728411
-0.028483928
-0.02928118
-0.030155461
-0.030963873
-0.031653346
-0.032235437
-0.032716898
-0.033087807
-0.03333552
-0.033451508
-0.033429967
-0.033265923
-0.032955302
-0.032495597
-0.031886229
-0.03112863
-0.030226316
-0.029184983
-0.02801258
-0.026719324
-0.02531765
-0.023822102
-0.022249164
-0.020617019
-0.018945236
-0.017254387
-0.015565596
-0.013900024
-0.012278314
-0.010720004
-0.0092429416
-0.0078627145
-0.0065921426
-0.0054408494
-0.0044149539
-0.0035169129
-0.0027455421
-0.0020962291
-0.001561346
-0.0011308464
-0.0007930004
-0.00053518917
-0.00034464137
-0.0002090581
-0.00011692917
-5.8058047e-05
-2.2528712e-05
-3.8014221e-06
5.09672e-06
-0.022814023
-0.023536802
-0.024295671
-0.025118956
-0.025893209
-0.026575511
-0.02717411
-0.027693536
-0.028124988
-0.028457287
-0.028682347
-0.028794128
-0.028787163
-0.028656603
-0.028398795
-0.028011593
-0.027494476
-0.026848643
-0.026077139
-0.025184959
-0.024179107
-0.023068598
-0.021864412
-0.020579395
-0.01922809
-0.017826513
-0.016391853
-0.014942111
-0.013495682
-0.012070887
-0.010685465
-0.009356054
-0.0080976762
-0.0069232498
-0.005843163
-0.0048649371
-0.0039930106
-0.0032286691
-0.0025701363
-0.0020128315
-0.0015497877
-0.0011722013
-0.0008700574
-0.00063275114
-0.00044961544
-0.00031036442
-0.00020503958
-0.00012571256
-5.8409404e-05
-3.1732713e-05
-0.018478608
-0.019163425
-0.01987914
-0.0206482
-0.021381573
-0.022044991
-0.022644225
-0.023182179
-0.023651217
-0.024041665
-0.024346124
-0.024558688
-0.024673806
-0.024686316
-0.024591919
-0.024387449
-0.024071003
-0.023642047
-0.023101553
-0.022452126
-0.021698089
-0.020845529
-0.0199023
-0.018877985
-0.017783794
-0.016632415
-0.015437797
-0.014214874
-0.012979238
-0.011746755
-0.010533142
-0.009353519
-0.008221953
-0.0071510065
-0.0061513285
-0.0052313085
-0.0043968213
-0.0036510879
-0.002994666
-0.002425579
-0.0019395804
-0.0015305409
-0.001190916
-0.00091224616
-0.00068557727
-0.0005019817
-0.0003519938
-0.00022967705
-0.00011462189
-6.832802e-05
-0.014675373
-0.015320373
-0.015991513
-0.016706249
-0.017395716
-0.018032968
-0.018621905
-0.019164236
-0.019653453
-0.020081342
-0.020441316
-0.020727846
-0.020935584
-0.021059391
-0.021094709
-0.021037804
-0.020885873
-0.020637166
-0.020291117
-0.019848479
-0.019311423
-0.018683619
-0.017970274
-0.017178137
-0.016315463
-0.015391918
-0.014418443
-0.013407057
-0.012370606
-0.011322471
-0.010276221
-0.0092452414
-0.0082423393
-0.0072793437
-0.0063667247
-0.0055132539
-0.0047257304
-0.0040087927
-0.0033648324
-0.0027940188
-0.0022944366
-0.0018623313
-0.0014924348
-0.0011783462
-0.00091283893
-0.00068842319
-0.00049632453
-0.00033259903
-0.00017131287
-0.00010417361
-0.011362581
-0.011968402
-0.012596032
-0.013258685
-0.013904086
-0.014511423
-0.015083173
-0.015620153
-0.016116901
-0.016566549
-0.016963366
-0.017302328
-0.017578469
-0.017786898
-0.017923088
-0.017983068
-0.017963532
-0.017861943
-0.017676663
-0.017407077
-0.017053706
-0.016618299
-0.0161039
-0.015514882
-0.014856959
-0.014137146
-0.01336368
-0.012545896
-0.011694048
-0.010819094
-0.0099324294
-0.009045587
-0.0081699074
-0.0073161969
-0.0064943861
-0.0057132102
-0.0049799327
-0.0043001283
-0.0036775425
-0.0031140351
-0.002609616
-0.0021625728
-0.0017696705
-0.0014264205
-0.0011272745
-0.00086620236
-0.00063526053
-0.00043247582
-0.00022723486
-0.00013868118
-0.0085023583
-0.0090711353
-0.0096578698
-0.010272142
-0.010875237
-0.011451449
-0.012002163
-0.012527522
-0.013022986
-0.013482896
-0.013902342
-0.014276864
-0.014601968
-0.014873142
-0.015086073
-0.015236799
-0.0153218
-0.015338092
-0.015283344
-0.015155988
-0.014955336
-0.01468167
-0.014336328
-0.01392176
-0.013441569
-0.012900514
-0.01230448
-0.01166041
-0.010976193
-0.010260515
-0.0095226637
-0.0087722976
-0.0080191851
-0.007272919
-0.0065426215
-0.0058366562
-0.0051623622
-0.0045258264
-0.003931708
-0.0033831247
-0.0028816098
-0.0024271429
-0.002018245
-0.0016521448
-0.0013248665
-0.001031804
-0.00076592578
-0.00052717054
-0.00028103654
-0.00017120011
-0.0060676825
-0.0066030076
-0.0071528567
-0.0077238024
-0.0082880967
-0.0088342076
-0.0093626762
-0.0098731312
-0.010361822
-0.010824132
-0.011255903
-0.011653229
-0.012012112
-0.012328481
-0.012598338
-0.012817884
-0.012983589
-0.013092274
-0.013141208
-0.013128209
-0.013051749
-0.012911041
-0.012706135
-0.012437982
-0.012108496
-0.011720584
-0.011278157
-0.010786106
-0.010250239
-0.0096771947
-0.0090743049
-0.008449431
-0.0078107626
-0.0071665903
-0.0065250606
-0.0058939249
-0.0052802951
-0.0046904193
-0.0041294882
-0.0036014846
-0.0031090827
-0.0026536049
-0.00223503
-0.0018520716
-0.0015021709
-0.001182055
-0.00088562638
-0.00061462786
-0.0003314131
-0.00020110509
-0.0040254259
-0.004531099
-0.0050484358
-0.0055814068
-0.0061110398
-0.0066291976
-0.0071357734
-0.0076299932
-0.0081087589
-0.0085683255
-0.0090051914
-0.009415958
-0.0097971034
-0.010144994
-0.01045599
-0.010726537
-0.010953216
-0.011132821
-0.011262433
-0.011339507
-0.011361965
-0.011328281
-0.011237564
-0.011089641
-0.010885119
-0.010625438
-0.010312908
-0.0099507153
-0.0095429057
-0.0090943389
-0.0086106079
-0.0080979271
-0.0075629878
-0.0070127845
-0.0064544185
-0.0058948867
-0.0053408652
-0.0047984979
-0.0042731998
-0.0037694851
-0.003290828
-0.002839565
-0.0024168355
-0.0020225879
-0.00165549
-0.0013134669
-0.00099132516
-0.00069245047
-0.00037675999
-0.00022758085
-0.0023841131
-0.0028654759
-0.0033559545
-0.0038576496
-0.0043583732
-0.0048525912
-0.0053396955
-0.0058186113
-0.0062867611
-0.0067410983
-0.0071786593
-0.007596479
-0.0079914523
-0.0083603439
-0.008699861
-0.0090067123
-0.0092776569
-0.0095095566
-0.0096994433
-0.0098445909
-0.0099425924
-0.0099914388
-0.0099895982
-0.0099360929
-0.0098305712
-0.0096733697
-0.0094655636
-0.0092089992
-0.0089063064
-0.0085608875
-0.0081768779
-0.0077590785
-0.0073128581
-0.006844026
-0.0063586797
-0.005863032
-0.005363224
-0.0048651325
-0.0043741791
-0.0038951496
-0.003432032
-0.002987881
-0.002564709
-0.0021634363
-0.0017837353
-0.0014245463
-0.0010814914
-0.00075937091
-0.00041631211
-0.00025029255
-0.0010848564
-0.0015462124
-0.0020148304
-0.0024911511
-0.0029681328
-0.0034422658
-0.0039125754
-0.0043777529
-0.0048356142
-0.0052836506
-0.0057193223
-0.0061400139
-0.0065429628
-0.006925269
-0.0072839402
-0.007615933
-0.0079181923
-0.008187694
-0.0084214982
-0.0086168097
-0.008771044
-0.0088818962
-0.0089474149
-0.0089660747
-0.0089368485
-0.0088592746
-0.0087335163
-0.0085604091
-0.0083414937
-0.0080790296
-0.0077759864
-0.0074360103
-0.0070633627
-0.0066628319
-0.0062396168
-0.0057991886
-0.0053471315