/*--------------------------------*- C++ -*----------------------------------*\
  =========                 |
  \\      /  F ield         | OpenFOAM: The Open Source CFD Toolbox
   \\    /   O peration     | Website:  https://openfoam.org
    \\  /    A nd           | Version:  6
     \\/     M anipulation  |
\*---------------------------------------------------------------------------*/
FoamFile
{
    version     2.0;
    format      ascii;
    class       volScalarField;
    location    "17";
    object      pMean;
}
// * * * * * * * * * * * * * * * * * * * * * * * * * * * * * * * * * * * * * //

dimensions      [0 2 -2 0 0 0 0];

internalField   nonuniform List<scalar> 
9200
(
-0.52098327
-0.50297931
-0.48651489
-0.4722312
-0.45809249
-0.44399859
-0.4300826
-0.41628754
-0.40251288
-0.38867322
-0.374699
-0.36054035
-0.34617425
-0.33160963
-0.31689261
-0.30211669
-0.28741323
-0.27290861
-0.2594523
-0.25057404
-0.54416023
-0.52377357
-0.50547338
-0.48960528
-0.47391085
-0.45827897
-0.44283436
-0.42749968
-0.41216137
-0.39673194
-0.38114995
-0.36538342
-0.3494353
-0.33334471
-0.31718561
-0.30106381
-0.28508667
-0.26931916
-0.25437201
-0.242173
-0.56688046
-0.54422138
-0.52421419
-0.50685865
-0.48964742
-0.47244478
-0.45536515
-0.43831766
-0.42118983
-0.40391165
-0.38645244
-0.36882088
-0.35106589
-0.3332719
-0.31555028
-0.29802828
-0.28081875
-0.26398364
-0.24791845
-0.23374529
-0.5884916
-0.56369052
-0.54209259
-0.5233079
-0.50455844
-0.4856775
-0.46677694
-0.44777078
-0.42857367
-0.40916306
-0.38956874
-0.3698654
-0.35016598
-0.33060947
-0.31134601
-0.29252234
-0.27425601
-0.25660838
-0.239859
-0.22481564
-0.60814342
-0.58140911
-0.55837371
-0.53822197
-0.51789861
-0.49721048
-0.47628666
-0.45507695
-0.43355935
-0.41179441
-0.38990189
-0.36804223
-0.34640037
-0.32516682
-0.30451959
-0.28461041
-0.2655463
-0.24737339
-0.23028598
-0.21486739
-0.62481057
-0.59645036
-0.57217705
-0.55072646
-0.52878279
-0.50614684
-0.48299935
-0.45936948
-0.43534211
-0.41109629
-0.38686426
-0.36289966
-0.33945299
-0.31674945
-0.29497282
-0.27425727
-0.25467874
-0.23625084
-0.21909139
-0.2035968
-0.6373199
-0.60774859
-0.58248869
-0.55982078
-0.53621499
-0.51150415
-0.48596868
-0.45976971
-0.43314349
-0.40641601
-0.37994163
-0.35405952
-0.32906542
-0.30519247
-0.28260305
-0.26139057
-0.24158228
-0.22314694
-0.20612867
-0.19076093
-0.64438387
-0.61413667
-0.58821074
-0.56444317
-0.53916856
-0.51230655
-0.48429499
-0.45548242
-0.42629541
-0.39722314
-0.36873699
-0.34124082
-0.31504648
-0.2903651
-0.26731231
-0.24592271
-0.22616438
-0.20795676
-0.19127393
-0.17620544
-0.64457781
-0.61422353
-0.58792522
-0.56313777
-0.53618723
-0.50715815
-0.47670909
-0.44542152
-0.41392906
-0.38287301
-0.35281187
-0.32417615
-0.29725699
-0.27221442
-0.24909858
-0.22787657
-0.20845657
-0.19071287
-0.17455617
-0.15994968
-0.63654134
-0.6065308
-0.58000591
-0.55418305
-0.52554943
-0.49444089
-0.46178688
-0.42841797
-0.39515405
-0.36274203
-0.33177148
-0.30264794
-0.2756034
-0.25072461
-0.22798871
-0.20729852
-0.18851206
-0.17146994
-0.15602783
-0.1420359
-0.35155014
-0.35292184
-0.350473
-0.34690802
-0.3421642
-0.33624032
-0.32935408
-0.32166834
-0.31328417
-0.30428525
-0.29474776
-0.28474013
-0.27432513
-0.26356217
-0.2525089
-0.24122402
-0.22976931
-0.21819599
-0.20652992
-0.1949085
-0.35615323
-0.35689696
-0.35403762
-0.35021694
-0.34527687
-0.33920894
-0.33222711
-0.32448443
-0.31607428
-0.30707484
-0.29755757
-0.28758676
-0.27722149
-0.26651754
-0.25552829
-0.24430944
-0.23292884
-0.22143562
-0.20972795
-0.19777801
-0.36505127
-0.36460041
-0.36096144
-0.35664253
-0.3513212
-0.34497262
-0.33780106
-0.32994157
-0.32147308
-0.31246268
-0.30297228
-0.29305769
-0.28277058
-0.27215978
-0.26127093
-0.2501533
-0.23888239
-0.22750796
-0.21572032
-0.2031742
-0.37770852
-0.37559717
-0.37085608
-0.36580565
-0.35991101
-0.35312605
-0.34564143
-0.33756845
-0.32896637
-0.31988668
-0.31037754
-0.30048265
-0.29024308
-0.27969796
-0.2688828
-0.25783721
-0.24664159
-0.23535406
-0.22343721
-0.21009939
-0.39345425
-0.38934243
-0.38323852
-0.37724082
-0.37057843
-0.36318452
-0.3552351
-0.34681492
-0.33796062
-0.3287051
-0.3190796
-0.30911246
-0.29883136
-0.28826378
-0.2774341
-0.26637053
-0.25515345
-0.24385719
-0.23174849
-0.21750418
-0.41159772
-0.40527202
-0.39761136
-0.39047666
-0.38285951
-0.37467763
-0.36609449
-0.35716872
-0.34791311
-0.33833904
-0.32845846
-0.31828288
-0.30782518
-0.29710017
-0.28612115
-0.2749047
-0.26352555
-0.25207752
-0.23969152
-0.22449066
-0.43152449
-0.42287801
-0.41353083
-0.40510462
-0.39636691
-0.38722832
-0.37784424
-0.3682473
-0.3584252
-0.34836809
-0.33806827
-0.32751931
-0.31671876
-0.30566923
-0.29437522
-0.28284516
-0.27114737
-0.25939745
-0.24666168
-0.23054451
-0.45274558
-0.44174908
-0.43064456
-0.42081841
-0.41083409
-0.40060131
-0.39026846
-0.37984468
-0.36929448
-0.35858611
-0.34769109
-0.33658425
-0.32524726
-0.31367086
-0.30185305
-0.28980069
-0.27758767
-0.2653772
-0.25227263
-0.23543055
-0.47488669
-0.46154326
-0.4486407
-0.43733642
-0.42600345
-0.41455298
-0.40313034
-0.39172323
-0.38027329
-0.36872726
-0.35703649
-0.34515769
-0.33305685
-0.32071083
-0.30810431
-0.29522954
-0.28214173
-0.26899448
-0.25492551
-0.23702213
-0.49767225
-0.48195722
-0.46719307
-0.4543128
-0.44150367
-0.42867971
-0.41598514
-0.40338856
-0.3908118
-0.37818469
-0.36544517
-0.35254119
-0.33943523
-0.32610524
-0.31253992
-0.29873314
-0.284691
-0.27030649
-0.2543659
-0.2345709
-0.18190475
-0.16640348
-0.15136451
-0.13698995
-0.12318448
-0.10997557
-0.097444394
-0.085637881
-0.074576925
-0.0642784
-0.054755256
-0.046011569
-0.038042976
-0.030838762
-0.024382584
-0.01865266
-0.013622258
-0.0092602943
-0.0055318373
-0.0023985405
0.0001808979
0.0022502534
0.0038552687
0.0050431066
0.0058617531
0.0063593703
0.0065836092
0.006580902
0.006395762
0.0060701277
0.0056427758
0.0051488253
0.0046193203
0.0040808693
0.0035553082
0.0030594059
0.0026047023
0.0021976372
0.0018400977
0.0015303844
0.0012643863
0.0010367899
0.00084175382
0.00067415947
0.00052748745
0.00040151071
0.00027761115
0.00019597192
1.6263387e-05
0.00015450566
-0.18563703
-0.16939391
-0.15405167
-0.13957844
-0.12560849
-0.1122087
-0.099505073
-0.08753812
-0.076321179
-0.065872876
-0.056207945
-0.047330274
-0.039235238
-0.031912193
-0.02534482
-0.019511236
-0.014384574
-0.009933604
-0.0061232133
-0.0029148498
-0.00026698351
0.0018644097
0.0035253411
0.0047632607
0.0056264585
0.0061634165
0.0064221174
0.0064493339
0.0062899238
0.0059861683
0.0055771821
0.005098416
0.0045812417
0.0040525964
0.0035346506
0.0030445142
0.0025940672
0.0021900732
0.0018347102
0.0015265227
0.0012615922
0.0010347485
0.000840252
0.0006730547
0.00052668311
0.0004009447
0.00027723989
0.00019575458
1.6227537e-05
0.00015430786
-0.19270635
-0.17501772
-0.15911977
-0.14452565
-0.13027784
-0.11652911
-0.10350893
-0.091245154
-0.079735035
-0.069001788
-0.059064761
-0.049928084
-0.041587082
-0.034031678
-0.027245957
-0.021208136
-0.015891313
-0.011264144
-0.00729131
-0.0039339661
-0.0011502163
0.0011043917
0.0028763549
0.0042136619
0.0051651888
0.0057800444
0.0061068723
0.0061931305
0.006084375
0.0058235875
0.0054505748
0.0050014665
0.004508303
0.0039986878
0.0034954649
0.0030164262
0.0025741281
0.0021759768
0.0018247247
0.0015193974
0.001256453
0.001031
0.00083749478
0.00067102557
0.00052520383
0.00039990645
0.00027655777
0.00019536795
1.6172931e-05
0.00015391763
-0.20197036
-0.18225558
-0.16564998
-0.15104619
-0.13652222
-0.12235293
-0.10894794
-0.096320232
-0.084440221
-0.073338912
-0.06304477
-0.05356369
-0.044891768
-0.037020543
-0.02993547
-0.023615563
-0.018034405
-0.013160934
-0.0089599161
-0.0053924051
-0.002416248
1.3398404e-05
0.0019435417
0.0034227888
0.0045007295
0.0052272701
0.0056519225
0.005823067
0.0057872191
0.0055883366
0.0052672026
0.0048609113
0.0044024554
0.0039203875
0.0034385099
0.0029755848
0.0025451335
0.0021554831
0.001810214
0.001509048
0.0012489904
0.0010255567
0.00083348917
0.00066807553
0.00052305086
0.00039839487
0.00027556516
0.00019480721
1.6113305e-05
0.00015332546
-0.21215136
-0.19004903
-0.17268829
-0.15827999
-0.14359708
-0.12903102
-0.11525037
-0.10226399
-0.09000387
-0.07850917
-0.067823061
-0.0579565
-0.048907858
-0.040671682
-0.033236259
-0.026582645
-0.020685864
-0.015515905
-0.011038247
-0.007214337
-0.004002143
-0.0013567068
0.00076929991
0.0024249891
0.0036606196
0.0045269102
0.0050743085
0.0053522316
0.0054083062
0.0052876484
0.00503222
0.004680294
0.0042660334
0.0038191591
0.0033646527
0.0029224725
0.0025073345
0.0021287141
0.0017912333
0.0014954979
0.0012392142
0.0010184224
0.00082823599
0.00066420349
0.00052022204
0.00039640586
0.00027426075
0.00019406487
1.6066837e-05
0.00015251842
-0.22204129
-0.19750451
-0.17944487
-0.16545551
-0.15082026
-0.13597402
-0.12189
-0.10860757
-0.096016394
-0.084156838
-0.073090156
-0.062837741
-0.053402931
-0.044784818
-0.036976239
-0.029961988
-0.023719918
-0.018222179
-0.01343589
-0.0093236669
-0.0058442245
-0.0029529835
-0.00060267667
0.0012560272
0.0026738567
0.0037022197
0.0043924436
0.0047949851
0.0049586367
0.0049297694
0.0047516519
0.0044638845
0.0041019596
0.0036969277
0.003275112
0.0028578321
0.00246117
0.0020959245
0.0017679309
0.0014788356
0.001227179
0.0010096317
0.00082175735
0.00065942255
0.00051672429
0.00039394042
0.00027264665
0.00019313312
1.6058409e-05
0.00015147969
-0.23074215
-0.20409537
-0.18544065
-0.17199513
-0.15766161
-0.14274422
-0.12847469
-0.11498611
-0.10214844
-0.089990641
-0.078587999
-0.067978064
-0.058173609
-0.049180224
-0.040996975
-0.033614261
-0.027014409
-0.021173049
-0.016060027
-0.011640039
-0.0078732931
-0.0047161923
-0.0021220095
-4.1566352e-05
0.0015760543
0.0027827503
0.0036306009
0.0041710373
0.0044540078
0.0045271752
0.0044351887
0.0042190741
0.0039157631
0.0035577486
0.0031728061
0.0027837274
0.0024080775
0.0020581028
0.001740979
0.001459514
0.0012131874
0.00099938489
0.00081418367
0.00065381544
0.00051260844
0.00039102574
0.00027074111
0.0001920095
1.6125348e-05
0.00015018722
-0.23774172
-0.20998122
-0.19081401
-0.17771144
-0.16385404
-0.14913771
-0.13482868
-0.12121306
-0.10820604
-0.095821693
-0.084137349
-0.073208273
-0.063061493
-0.053711413
-0.045164508
-0.037418099
-0.030460331
-0.024271447
-0.018824948
-0.014088399
-0.010024176
-0.0065902284
-0.0037408312
-0.0014273371
0.00040105832
0.0017965101
0.0028116791
0.0034988578
0.0039090883
0.0040913094
0.0040915731
0.0039523806
0.0037121682
0.0034049391
0.0030599849
0.0027016301
0.0023489843
0.0020158117
0.0017107062
0.0014377173
0.0011973374
0.0009877302
0.00080553511
0.00064738621
0.00050787039
0.00038765096
0.00026853849
0.00019067336
1.6305838e-05
0.00014861354
-0.24087131
-0.21486215
-0.19575044
-0.18242637
-0.16901439
-0.15481372
-0.14070777
-0.12710547
-0.11404372
-0.10154165
-0.0896685
-0.078493014
-0.068059435
-0.058394122
-0.049512801
-0.041421337
-0.034115458
-0.027581712
-0.021798743
-0.016738289
-0.012366024
-0.0086424092
-0.005523539
-0.00296197
-0.00090756036
0.00069166151
0.0018885953
0.0027361391
0.0032862534
0.0035890481
0.0036919379
0.0036389136
0.0034699697
0.0032206922
0.002921961
0.002599691
0.002274579
0.0019619457
0.0016718534
0.0014096659
0.0011769838
0.00097285672
0.0007945941
0.00063932865
0.00050198534
0.00038348072
0.0002658362
0.00018900656
1.6566815e-05
0.0001467486
-0.23429631
-0.21602667
-0.19901429
-0.18512716
-0.17211495
-0.15884296
-0.14541316
-0.1321997
-0.11937764
-0.107003
-0.095142086
-0.083875964
-0.073270599
-0.063371471
-0.054209789
-0.045805093
-0.038165251
-0.031287128
-0.025157902
-0.019756271
-0.015053496
-0.011014394
-0.0075983454
-0.0047602639
-0.0024515626
-0.00062113093
0.00078366774
0.0018159822
0.0025284581
0.0029722499
0.0031960992
0.0032455284
0.0031621905
0.0029833885
0.0027417272
0.0024648267
0.0021750583
0.0018893728
0.0016193907
0.0013719182
0.001149835
0.00095327359
0.0007804096
0.00062904788
0.0004945889
0.00037830187
0.00026250697
0.00018698247
1.6829016e-05
0.00014466067
-0.21701464
-0.21053145
-0.19796821
-0.18403031
-0.17114302
-0.1585026
-0.14567532
-0.13290882
-0.12043585
-0.10834258
-0.096695573
-0.085577493
-0.07506181
-0.065202435
-0.056038159
-0.047595629
-0.039889494
-0.032922889
-0.026688638
-0.02117046
-0.016344024
-0.012177974
-0.0086349544
-0.0056726179
-0.0032446222
-0.00130164
0.0002076131
0.0013353326
0.0021335756
0.0026532326
0.0029430572
0.003048803
0.0030125185
0.0028720322
0.0026606045
0.0024066745
0.0021336243
0.0018595861
0.001597434
0.0013551511
0.0011365834
0.00094255339
0.00077166969
0.00062196612
0.000489
0.00037400314
0.00025968889
0.0001849095
1.7598254e-05
0.00014233246
-0.20265523
-0.19730517
-0.18706074
-0.17443745
-0.16271554
-0.15141349
-0.13990304
-0.12832055
-0.11689845
-0.10573426
-0.094896291
-0.084469493
-0.074533805
-0.065151865
-0.056371825
-0.048229896
-0.040750322
-0.03394562
-0.027817566
-0.022358282
-0.01755123
-0.013372207
-0.0097903628
-0.0067692137
-0.0042676618
-0.0022410218
-0.00064206924
0.00057789583
0.0014679834
0.0020766677
0.0024507952
0.0026346916
0.0026694148
0.0025921859
0.0024359867
0.00222926
0.0019956487
0.0017537865
0.0015172671
0.0012949581
0.0010916738
0.00090918804
0.00074698539
0.00060379115
0.00047584928
0.00036453017
0.00025377089
0.0001803093
1.8627515e-05
0.00013847082
-0.18914797
-0.18285374
-0.17441759
-0.16402624
-0.1537809
-0.14371655
-0.13343626
-0.12300516
-0.112618
-0.10238234
-0.092371987
-0.082670675
-0.07335997
-0.064507479
-0.056167626
-0.048383567
-0.041187081
-0.034598546
-0.028627624
-0.023274152
-0.018528996
-0.014374958
-0.010787725
-0.0077368422
-0.0051867137
-0.0030976144
-0.001426734
-0.00012923891
0.00084066067
0.0015286584
0.0019793468
0.0022353006
0.0023362933
0.0023186814
0.0022149515
0.0020533782
0.001857733
0.0016470514
0.0014355639
0.0012329439
0.0010448942
0.00087406143
0.00072074138
0.00058429212
0.00046163933
0.00035420057
0.00024736467
0.00017509959
2.0400828e-05
0.00013348545
-0.17478635
-0.16789345
-0.16066445
-0.15254741
-0.14397948
-0.1351868
-0.12614507
-0.1169119
-0.10761502
-0.098359577
-0.089229979
-0.080310571
-0.07168257
-0.063416823
-0.05557293
-0.048200025
-0.041336574
-0.035010204
-0.029238088
-0.024027589
-0.019376961
-0.015276123
-0.011707511
-0.0086469913
-0.0060648062
-0.0039265602
-0.0021942396
-0.00082725903
0.00021647932
0.0009795361
0.0015039229
0.0018301667
0.0019964945
0.0020381731
0.0019870073
0.0018709551
0.0017138055
0.0015349175
0.0013491067
0.0011668198
0.00099462644
0.00083602929
0.00069212479
0.00056289428
0.0004459568
0.00034274805
0.00024023426
0.00016929384
2.2519736e-05
0.00012764555
-0.15988662
-0.15302495
-0.14671296
-0.1404725
-0.13353935
-0.12603952
-0.11822289
-0.11018916
-0.10200663
-0.093763785
-0.085552497
-0.077458525
-0.069561119
-0.061932043
-0.05463438
-0.047721909
-0.041238612
-0.035218435
-0.029685411
-0.024654026
-0.02012972
-0.016109498
-0.012582662
-0.0095316137
-0.0069327341
-0.0047573067
-0.0029724963
-0.0015423634
-0.00042889881
0.00040693988
0.00100422
0.0014010884
0.0016339297
0.0017366654
0.0017402021
0.001672
0.0015557148
0.0014109066
0.0012528838
0.0010928058
0.00093808207
0.00079307191
0.00065969336
0.00053858266
0.00042809343
0.00032970204
0.00023204584
0.00016275702
2.4727034e-05
0.00012107648
-0.14452122
-0.13835826
-0.13300055
-0.12824143
-0.12276689
-0.11653044
-0.10989799
-0.1030192
-0.095930351
-0.088697888
-0.081413239
-0.07416237
-0.067021675
-0.060061627
-0.053346649
-0.046933424
-0.04086992
-0.035195065
-0.029938674
-0.025121544
-0.020755722
-0.016844936
-0.013385163
-0.010365312
-0.0077679844
-0.0055703231
-0.0037449193
-0.0022607732
-0.0010842878
-0.00018027534
0.00048705106
0.00095313382
0.0012522135
0.0014165939
0.0014760436
0.0014573172
0.0013837586
0.0012749762
0.0011466475
0.0010105527
0.00087488214
0.00074482623
0.00062312417
0.00051108663
0.00040782838
0.00031490156
0.00022265931
0.00015545122
2.6845987e-05
0.00011389396
-0.1290958
-0.12405866
-0.1197289
-0.11614488
-0.11191052
-0.1068554
-0.10134474
-0.095554411
-0.089510999
-0.083261983
-0.076891046
-0.070481321
-0.064105598
-0.057831426
-0.051722469
-0.045836474
-0.040223782
-0.03492683
-0.029979938
-0.025409162
-0.021232335
-0.017459291
-0.014092267
-0.011126418
-0.0085504628
-0.0063474106
-0.0044953823
-0.0029684936
-0.0017377888
-0.0007721997
-3.9504975e-05
0.00049274121
0.00085634884
0.0010817335
0.0011972796
0.0012288164
0.001199182
0.0011278655
0.0010307701
0.00092018337
0.00080499446
0.00069117526
0.00058226367
0.00048024878
0.00038501425
0.00029823141
0.00021195954
0.000147354
2.8688533e-05
0.00010622576
-0.11415602
-0.1103272
-0.10700622
-0.10437444
-0.10117573
-0.097184097
-0.092709982
-0.087927507
-0.082862862
-0.077550489
-0.072062452
-0.066475546
-0.060857804
-0.055272607
-0.049781039
-0.044440093
-0.039300847
-0.034407734
-0.029798187
-0.025502321
-0.021542748
-0.017934606
-0.014685767
-0.011797196
-0.0092634385
-0.0070732213
-0.0052101581
-0.0036535379
-0.0023791775
-0.001360316
-0.00056852608
2.5388722e-05
0.00045054426
0.00073520708
0.00090612894
0.00098798528
0.0010029017
0.00097006314
0.00090543748
0.00082168407
0.00072828695
0.00063192876
0.00053690426
0.00044587119
0.0003594739
0.00027955268
0.00019981588
0.00013842467
3.005851e-05
9.8195229e-05
-0.10004729
-0.097301223
-0.094892887
-0.093049431
-0.090713766
-0.087653151
-0.084113054
-0.080248066
-0.076084213
-0.07164732
-0.066996998
-0.0622011
-0.057321472
-0.052416283
-0.04754258
-0.042754963
-0.038103677
-0.033633661
-0.02938406
-0.025387762
-0.021671038
-0.018253375
-0.015147506
-0.012359599
-0.0098895757
-0.0077315778
-0.0058745363
-0.0043028477
-0.0029971283
-0.0019350266
-0.0010920692
-0.00044251181
3.9837248e-05
0.00038085308
0.00060541303
0.00073680676
0.00079623103
0.00080236737
0.00077106892
0.0007152115
0.00064474723
0.00056697688
0.00048688982
0.00040778671
0.00033104806
0.00025873314
0.00018610382
0.00012861123
3.0774468e-05
8.9909705e-05
-0.086922694
-0.085070175
-0.083440559
-0.082251549
-0.080633373
-0.078370917
-0.075653261
-0.072608885
-0.069260886
-0.065628523
-0.061759651
-0.057711902
-0.053539675
-0.049295001
-0.045029771
-0.040794823
-0.036638144
-0.032603782
-0.028731228
-0.025054854
-0.021603407
-0.018399681
-0.015460378
-0.012796123
-0.010411631
-0.0083060148
-0.0064732148
-0.004902548
-0.0035793488
-0.0024856837
-0.0016011169
-0.00090349838
-0.00036974572
2.3411916e-05
0.00029875188
0.00047795159
0.00058105932
0.00062604523
0.0006284543
0.00060120568
0.00055457257
0.0004963597
0.00043216796
0.000365897
0.00029962227
0.00023566516
0.00017071752
0.00011785552
3.0681317e-05
8.1452068e-05
-0.074842875
-0.07369629
-0.07270099
-0.072045372
-0.071016983
-0.069426051
-0.067417174
-0.065093041
-0.062471607
-0.059566249
-0.056414187
-0.05306263
-0.049557761
-0.04594475
-0.04226951
-0.03857805
-0.034914884
-0.031321906
-0.027837689
-0.024496834
-0.021329379
-0.018360334
-0.015609394
-0.013090802
-0.010813362
-0.0087805932
-0.0069910153
-0.0054385616
-0.0041130945
-0.0030010106
-0.0020859113
-0.001349314
-0.00077137621
-0.00033160385
-9.5187706e-06
0.00021473215
0.00035983393
0.0004428344
0.00047876843
0.00048041171
0.00045819431
0.00042029102
0.00037281109
0.00032019004
0.00026514046
0.00021027601
0.00015357734
0.00010609858
2.9658211e-05
7.2877579e-05
-0.063817969
-0.063212876
-0.062715316
-0.062481664
-0.061928513
-0.060891546
-0.059480838
-0.057776434
-0.055790407
-0.053530633
-0.051024861
-0.048310369
-0.045424918
-0.042406425
-0.039294303
-0.036128981
-0.032950549
-0.029797684
-0.026706903
-0.023711884
-0.020842805
-0.018125799
-0.01558254
-0.013229977
-0.011080211
-0.0091404964
-0.0074133937
-0.0058970358
-0.0045855167
-0.0034693757
-0.0025361622
-0.0017710566
-0.0011575234
-0.00067796767
-0.00031437288
-4.8898065e-05
0.0001355771
0.00025497166
0.00032360589
0.00035391682
0.00035631385
0.00033919104
0.00030904446
0.00027076303
0.00022762262
0.00018254128
0.00013463866
9.3288002e-05
2.7622558e-05
6.4213471e-05
-0.053824628
-0.053625239
-0.053506242
-0.053595207
-0.053415271
-0.052825521
-0.051909074
-0.050727113
-0.049286216
-0.047589341
-0.045655989
-0.043514389
-0.041194192
-0.038726051
-0.036142683
-0.033478515
-0.030768561
-0.028047455
-0.025348719
-0.022704088
-0.02014283
-0.017691146
-0.015371678
-0.013203139
-0.011200069
-0.0093727119
-0.0077270319
-0.0062648455
-0.0049840786
-0.0038791267
-0.0029413051
-0.00215937
-0.0015200869
-0.0010088231
-0.00061013868
-0.00030835857
-8.8105807e-05
6.5216394e-05
0.00016501388
0.00022318758
0.00024994047
0.00025372206
0.00024127778
0.00021784908
0.00018718599
0.00015250174
0.00011390333
7.9389274e-05
2.4533007e-05
5.5463975e-05
-0.044819594
-0.044916877
-0.045077148
-0.045403635
-0.045508181
-0.045270971
-0.044754068
-0.044003377
-0.043020929
-0.041805625
-0.040370017
-0.038734423
-0.036921065
-0.034953692
-0.03285846
-0.030663695
-0.028398998
-0.026094411
-0.023779758
-0.021483998
-0.019234579
-0.017056813
-0.014973349
-0.013003729
-0.011164053
-0.0094667562
-0.0079204979
-0.0065301767
-0.0052970583
-0.0042190123
-0.0032908452
-0.0025047141
-0.0018506016
-0.0013168305
-0.00089059699
-0.00055850055
-0.00030705377
-0.00012315359
5.5044593e-06
9.0092632e-05
0.00014041971
0.00016481851
0.000170134
0.00016184297
0.00014406646
0.00012028097
9.1431443e-05
6.4397806e-05
2.0389153e-05
4.6617415e-05
-0.03674749
-0.037055282
-0.037414524
-0.037908269
-0.03822233
-0.038255804
-0.038054463
-0.037652117
-0.037047368
-0.03623606
-0.035225156
-0.034028322
-0.032661291
-0.031141558
-0.029489147
-0.027726491
-0.025877741
-0.023968092
-0.022023222
-0.020068716
-0.018129469
-0.016229093
-0.01438938
-0.012629822
-0.010967222
-0.0094153879
-0.0079849281
-0.0066831586
-0.0055141161
-0.0044786776
-0.0035747774
-0.0027977116
-0.0021405129
-0.0015943795
-0.0011491368
-0.00079371457
-0.00051661851
-0.00030637926
-0.00015195895
-4.3093743e-05
2.9447961e-05
7.3707804e-05
9.6472566e-05
0.00010332411
9.863912e-05
8.6103373e-05
6.7354213e-05
4.8352283e-05
1.5231344e-05
3.765635e-05
-0.0295456
-0.029996966
-0.030491806
-0.031096588
-0.031558615
-0.031793792
-0.031835482
-0.031708116
-0.031407952
-0.030928777
-0.030273285
-0.029449791
-0.028468607
-0.027341824
-0.026083992
-0.024712106
-0.023245104
-0.021703359
-0.020108217
-0.018481531
-0.016845133
-0.0152203
-0.013627245
-0.012084635
-0.010609179
-0.0092152659
-0.0079147014
-0.0067165221
-0.0056269141
-0.0046492271
-0.0037840827
-0.0030295723
-0.0023815307
-0.0018338728
-0.0013789768
-0.0010080962
-0.00071178225
-0.0004802984
-0.00030400795
-0.00017371389
-8.0932226e-05
-1.8082672e-05
2.1403257e-05
4.3073426e-05
5.1435266e-05
5.0309996e-05
4.188599e-05
3.1346749e-05
9.1394126e-06
2.8567466e-05
-0.023147824
-0.023691741
-0.024273278
-0.024945354
-0.025506143
-0.025886323
-0.026109931
-0.026194293
-0.026134254
-0.025922438
-0.025558471
-0.025046569
-0.024392718
-0.023604548
-0.022691939
-0.021667088
-0.020544178
-0.019339013
-0.018068678
-0.016751171
-0.015404977
-0.01404861
-0.012700154
-0.011376816
-0.010094514
-0.0088675006
-0.0077080553
-0.0066262431
-0.0056297546
-0.0047238332
-0.0039112881
-0.0031925927
-0.0025660605
-0.0020280894
-0.0015734606
-0.0011956787
-0.00088733432
-0.00064047406
-0.00044695739
-0.00029878261
-0.00018836313
-0.00010873841
-5.3714377e-05
-1.7919635e-05
3.1531646e-06
1.3370729e-05
1.5334685e-05
1.3541197e-05
2.2325773e-06
1.9351483e-05
-0.01748761
-0.018085971
-0.018717345
-0.019423623
-0.020044857
-0.020524545
-0.020879804
-0.021122671
-0.021247332
-0.021245973
-0.021116186
-0.020859205
-0.020477736
-0.019975898
-0.019359761
-0.018637474
-0.017819071
-0.016916226
-0.015942033
-0.014910736
-0.013837406
-0.012737571
-0.011626831
-0.010520461
-0.0094330295
-0.0083780358
-0.0073675852
-0.0064121163
-0.0055201906
-0.0046983514
-0.0039510601
-0.0032807074
-0.0026877003
-0.0021706175
-0.0017264242
-0.0013507352
-0.0010381124
-0.00078238045
-0.00057694309
-0.0004150845
-0.00029023646
-0.000196197
-0.00012729154
-7.8464693e-05
-4.5341404e-05
-2.4110669e-05
-1.1892113e-05
-4.8315959e-06
-5.3312068e-06
1.0030846e-05
-0.012500042
-0.013125045
-0.013779194
-0.014495425
-0.015148087
-0.015691666
-0.016138189
-0.016495827
-0.01675866
-0.016918982
-0.016973185
-0.016920469
-0.016761188
-0.016496836
-0.016130523
-0.015667131
-0.015113226
-0.014476916
-0.013767726
-0.012996422
-0.012174783
-0.011315327
-0.010431
-0.0095348527
-0.0086397046
-0.0077578151
-0.0069005703
-0.0060782029
-0.0052995551
-0.0045718945
-0.0039007917
-0.0032900628
-0.0027417797
-0.0022563451
-0.0018326275
-0.0014681481
-0.0011593094
-0.00090165009
-0.00069011469
-0.00051931908
-0.00038379819
-0.00027822019
-0.00019755657
-0.00013719771
-9.3028948e-05
-6.1401647e-05
-3.9287415e-05
-2.3463948e-05
-1.3355988e-05
6.554971e-07
-0.0081234173
-0.0087553496
-0.0094130331
-0.010122124
-0.010784924
-0.011365224
-0.011871337
-0.01230864
-0.012671486
-0.012952654
-0.013147965
-0.013255347
-0.013273581
-0.013202315
-0.013042472
-0.01279642
-0.012467954
-0.012062234
-0.011585733
-0.011046138
-0.010452213
-0.0098136009
-0.0091406028
-0.0084439224
-0.0077343936
-0.0070226976
-0.006319083
-0.0056330987
-0.0049733536
-0.0043473119
-0.003761134
-0.0032195695
-0.0027259065
-0.0022819793
-0.001888232
-0.0015438338
-0.0012468391
-0.00099438071
-0.00078288533
-0.00060829773
-0.00046629873
-0.00035250418
-0.00026263262
-0.00019263301
-0.00013876895
-9.765989e-05
-6.6254757e-05
-4.1977984e-05
-2.1610969e-05
-8.6943753e-06
-0.0043002824
-0.0049256973
-0.0055738105
-0.0062643597
-0.0069222954
-0.0075192107
-0.0080607146
-0.0085501934
-0.0089824974
-0.0093511189
-0.0096517581
-0.0098816477
-0.010038614
-0.010121102
-0.010128515
-0.010061385
-0.0099213952
-0.0097113757
-0.0094352991
-0.0090982492
-0.0087063453
-0.0082666248
-0.0077868922
-0.0072755359
-0.0067413214
-0.0061931641
-0.0056398937
-0.0050900182
-0.0045514986
-0.0040315442
-0.0035364376
-0.0030713978
-0.002640487
-0.0022465659
-0.0018912981
-0.0015752025
-0.0012977495
-0.0010574936
-0.000852234
-0.00067919141
-0.00053518988
-0.00041683128
-0.00032065044
-0.00024324404
-0.00018135518
-0.00013196954
-9.2130316e-05
-5.9938687e-05
-2.9836796e-05
-1.7908318e-05
-0.00097829669
-0.0015885005
-0.0022186462
-0.002883646
-0.0035267
-0.0041258713
-0.0046848105
-0.0052054933
-0.0056833798
-0.006112784
-0.0064895813
-0.0068107244
-0.0070735472
-0.0072757933
-0.007415892
-0.0074931132
-0.0075076129
-0.0074604625
-0.0073536791
-0.0071902353
-0.0069740355
-0.0067098575
-0.0064032633
-0.0060604808
-0.005688258
-0.0052936944
-0.0048840559
-0.0044665795
-0.0040482776
-0.0036357493
-0.0032350075
-0.0028513305
-0.0024891449
-0.0021519447
-0.0018422509
-0.0015616127
-0.0013106478
-0.0010891198
-0.00089604458
-0.0007298193
-0.0005883632
-0.0004692609
-0.00036989666
-0.00028757462
-0.00021959624
-0.00016339716
-0.00011621975
-7.6877032e-05
-3.7757189e-05
-2.6848856e-05
0.0018892255
0.0012992612
0.00069183692
5.5967801e-05
-0.0005661509
-0.0011578909
-0.0017214857
-0.0022579173
-0.0027632846
-0.0032327436
-0.0036625189
-0.0040495602
-0.0043910356
-0.0046843577
-0.004927401
-0.0051186341
-0.0052571751
-0.0053428373
-0.0053761782
-0.0053585348
-0.0052920348
-0.0051795818
-0.0050248145
-0.0048320414
-0.0046061492
-0.0043524887
-0.0040767399
-0.0037847626
-0.0034824375
-0.0031755051
-0.0028694093
-0.0025691529
-0.0022791725
-0.0020032384
-0.0017443843
-0.0015048697
-0.0012861769
-0.0010890391
-0.00091349921
-0.00075899128
-0.00062443986
-0.00050836788
-0.00040900393
-0.00032438625
-0.00025242568
-0.00019107126
-0.00013785257
-9.2325174e-05
-4.5097021e-05
-3.5358028e-05
0.0043434855
0.0037762022
0.0031936409
0.00258803
0.0019899654
0.001411763
0.00085221157
0.00031102785
-0.00020849999
-0.00070232947
-0.0011671166
-0.0015999774
-0.0019981265
-0.0023589004
-0.0026799218
-0.0029592074
-0.0031952237
-0.0033869375
-0.0035338717
-0.0036361537
-0.0036945474
-0.003710467
-0.0036859718
-0.0036237405
-0.0035270247
-0.0033995803
-0.0032455799
-0.0030695072
-0.0028760385
-0.0026699151
-0.0024558117
-0.002238209
-0.0020212726
-0.0018087488
-0.0016038779
-0.0014093329
-0.0012271828
-0.0010588839
-0.00090529604
-0.00076672312
-0.00064297122
-0.00053342066
-0.00043710276
-0.00035278199
-0.00027899922
-0.00021425506
-0.00015643339
-0.00010584966
-5.1598216e-05
-4.3262463e-05
0.0064167873
0.005872351
0.0053145711
0.0047382316
0.004164823
0.0036032179
0.0030529429
0.0025142031
0.001989734
0.0014828561
0.0009964648
0.0005331909
9.5649099e-05
-0.00031358081
-0.00069207425
-0.0010376456
-0.0013483984
-0.0016227744
-0.0018596082
-0.0020581793
-0.0022182543
-0.0023401172
-0.0024245876
-0.0024730231
-0.0024873059
-0.0024698114
-0.0024233596
-0.0023511491
-0.0022566771
-0.0021436462
-0.0020158634
-0.0018771346
-0.0017311593
-0.0015814318
-0.0014311513
-0.0012831482
-0.001139827
-0.00100313
-0.00087452163
-0.00075499296
-0.00064508422
-0.00054492222
-0.00045426605
-0.0003725646
-0.00029897644
-0.00023256253
-0.00017160208
-0.00011716551
-5.7094179e-05
-5.0410826e-05
0.0081418329
0.0076193166
0.0070850425
0.0065358981
0.0059863062
0.0054424113
0.0049042672
0.0043724229
0.0038491398
0.0033371176
0.0028388286
0.0023566222
0.0018928862
0.0014500309
0.0010304059
0.0006362371
0.00026958426
-6.770222e-05
-0.00037403118
-0.00064812005
-0.00088904007
-0.0010962547
-0.0012696506
-0.0014095584
-0.0015167625
-0.0015924968
-0.0016384264
-0.0016566153
-0.0016494789
-0.001619724
-0.0015702777
-0.0015042075
-0.0014246366
-0.0013346576
-0.0012372496
-0.001135201
-0.001031043
-0.00092699592
-0.00082493033
-0.00072634426
-0.00063235558
-0.00054370884
-0.00046079184
-0.00038366798
-0.00031207189
-0.00024560453
-0.00018295478
-0.00012591498
-6.133102e-05
-5.6563693e-05
0.0095221458
0.0090186108
0.008504756
0.0079789392
0.0074502733
0.0069228557
0.0063971186
0.0058738429
0.0053549021
0.0048424892
0.0043387106
0.003845648
0.0033654541
0.0029003406
0.0024525221
0.0020241713
0.0016173843
0.0012341439
0.00087627676
0.00054540911
0.0002429231
-3.0083688e-05
-0.00027283542
-0.00048490921
-0.00066625908
-0.00081723052
-0.00093856447
-0.0010313895
-0.0010972015
-0.0011378314
-0.0011554004
-0.0011522652
-0.0011309547
-0.0010941005
-0.0010443646
-0.00098436675
-0.00091661633