/*--------------------------------*- C++ -*----------------------------------*\
  =========                 |
  \\      /  F ield         | OpenFOAM: The Open Source CFD Toolbox
   \\    /   O peration     | Website:  https://openfoam.org
    \\  /    A nd           | Version:  6
     \\/     M anipulation  |
\*---------------------------------------------------------------------------*/
FoamFile
{
    version     2.0;
    format      ascii;
    class       volScalarField;
    location    "335";
    object      pPrime2Mean;
}
// * * * * * * * * * * * * * * * * * * * * * * * * * * * * * * * * * * * * * //

dimensions      [0 4 -4 0 0 0 0];

internalField   nonuniform List<scalar> 
9200
(
0.033621955
0.027876499
0.023011952
0.019844441
0.017315581
0.015183666
0.013343684
0.011742058
0.010343119
0.0091183168
0.0080440123
0.0071004038
0.0062707818
0.0055409606
0.0048988347
0.0043340536
0.0038378539
0.0034029206
0.0030237651
0.002693159
0.02728131
0.022578145
0.01864475
0.016058667
0.013983241
0.012228299
0.01071135
0.0093903002
0.0082367981
0.0072280073
0.0063448726
0.005571287
0.0048935188
0.0042997701
0.0037798375
0.0033248692
0.0029272378
0.0025803618
0.0022780676
0.0020115421
0.021335728
0.017635157
0.014576291
0.012537734
0.010888353
0.0094866793
0.0082718152
0.0072127797
0.0062884301
0.0054814906
0.0047772671
0.0041630635
0.0036277977
0.0031617172
0.0027561964
0.0024036035
0.0020972255
0.0018311253
0.0015993202
0.0013939728
0.015950038
0.013180661
0.010913354
0.0093727557
0.0081103012
0.0070288375
0.0060875188
0.0052658129
0.0045493926
0.0039261081
0.0033851486
0.0029167403
0.0025119939
0.0021628207
0.0018618972
0.0016026543
0.0013792651
0.0011865514
0.0010193973
0.00087187118
0.011272716
0.0093342914
0.0077542451
0.0066485591
0.0057238217
0.0049215372
0.0042187991
0.0036045131
0.0030704499
0.0026088579
0.002212103
0.0018727027
0.0015834549
0.001337581
0.001128858
0.00095171074
0.00080124465
0.00067319364
0.00056361355
0.00046852136
0.0074346011
0.0062002772
0.0051861397
0.0044409948
0.0037962504
0.003225459
0.0027209724
0.0022797279
0.001898526
0.001573024
0.0012979051
0.0010673028
0.00087523043
0.00071593664
0.00058415992
0.00047527197
0.00038531471
0.00031095737
0.0002493827
0.00019812497
0.0045451084
0.0038649639
0.003283169
0.0028153155
0.0023860895
0.0019938098
0.0016428598
0.0013364103
0.001074929
0.00085633673
0.0006767436
0.00053127771
0.00041478373
0.00032232448
0.00024948463
0.00019250492
0.00014828739
0.00011433796
8.8749987e-05
7.00776e-05
0.0026894538
0.0023951204
0.0021050757
0.0018249241
0.0015417294
0.0012709175
0.0010252122
0.00081191495
0.00063363216
0.00048938272
0.0003758894
0.00028876086
0.00022337243
0.00017541983
0.00014119755
0.00011767894
0.00010247275
9.3743834e-05
9.0220652e-05
9.1050306e-05
0.0019262916
0.0018360596
0.0016947035
0.0015086512
0.0012989451
0.0010901434
0.00089909273
0.00073483688
0.0006005289
0.00049522714
0.00041562492
0.00035744921
0.00031638918
0.00028860481
0.00027092646
0.00026086394
0.0002565192
0.00025648902
0.00025984648
0.00026598213
0.0022851969
0.0022101436
0.0020753853
0.0018882435
0.0016785173
0.0014714042
0.0012832176
0.0011222601
0.00099076257
0.00088699039
0.00080716934
0.00074690583
0.00070202356
0.00066895087
0.00064482469
0.00062743822
0.0006151288
0.00060666991
0.0006011921
0.00059802972
0.079709306
0.067040398
0.055408545
0.048053081
0.042212522
0.037309961
0.033088911
0.029411002
0.026190568
0.023360284
0.020865149
0.01865963
0.016705586
0.014970775
0.013427741
0.012052966
0.010826211
0.0097293466
0.0087453479
0.0078643684
0.078695314
0.066122735
0.054624041
0.047353037
0.041585619
0.036745529
0.032578548
0.028948579
0.02577094
0.022978952
0.020518135
0.018343393
0.016416965
0.014706938
0.013186149
0.011831349
0.010622563
0.0095419284
0.0085723204
0.007704231
0.076626964
0.064305896
0.053094936
0.046004678
0.04038701
0.03567356
0.031615579
0.028081233
0.02498806
0.022270982
0.019876791
0.017761429
0.015888002
0.014225342
0.012746925
0.011430071
0.010255345
0.0092054165
0.0082632145
0.0074193977
0.073540376
0.061633993
0.050865402
0.044049854
0.038654579
0.034128351
0.030231399
0.026837911
0.023868752
0.021261346
0.018964478
0.016935709
0.015139486
0.013545774
0.012129019
0.010867373
0.0097421604
0.0087368161
0.0078346142
0.0070260923
0.069519795
0.058182826
0.04800001
0.041546314
0.036440133
0.032156607
0.028468419
0.025257336
0.022448538
0.019982756
0.017811426
0.015894263
0.014197498
0.012692586
0.01135524
0.010164681
0.0091031498
0.0081550288
0.0073044204
0.0065416156
0.06467974
0.054052798
0.044582507
0.038567851
0.033809411
0.02981722
0.026379626
0.023387341
0.020770716
0.018474495
0.016453347
0.014669619
0.013091715
0.011692908
0.010450443
0.0093448197
0.0083593181
0.0074793544
0.0066904058
0.0059828125
0.059159259
0.049364329
0.040712031
0.035201016
0.030839137
0.027178628
0.024026267
0.021282821
0.018884558
0.016780831
0.014930038
0.013297572
0.011854363
0.010575797
0.0094409007
0.0084316561
0.0075325064
0.0067299083
0.0060111129
0.0053671558
0.053116906
0.04425359
0.036499929
0.031542451
0.02761464
0.024316671
0.021475926
0.019004074
0.016843885
0.014949814
0.013284394
0.011816417
0.010519647
0.0093718591
0.0083540973
0.0074500458
0.0066454977
0.0059280096
0.0052868354
0.0047143491
0.046724988
0.03886742
0.032065713
0.027695341
0.024226682
0.021311768
0.018800031
0.016614562
0.014705082
0.013031526
0.01156089
0.010265654
0.0091226713
0.0081123388
0.0072179396
0.0064250779
0.0057211566
0.0050950775
0.0045383519
0.0040447346
0.040163334
0.033359209
0.027532787
0.023764898
0.02076706
0.01824478
0.016070044
0.014177536
0.012524209
0.011075725
0.0098037567
0.0086846508
0.0076985065
0.0068284789
0.0060602327
0.0053814927
0.0047816893
0.0042519174
0.0037866785
0.0033800249
0.0069350817
0.0060087436
0.0052234508
0.0045418382
0.0039596987
0.0034611858
0.0030325471
0.0026619841
0.0023399045
0.0020585181
0.0018115162
0.0015938452
0.0014014491
0.001231031
0.0010798736
0.00094570891
0.00082661816
0.00072095583
0.00062729401
0.00054438066
0.00047110783
0.00040648713
0.00034963083
0.00029973703
0.00025607835
0.000217993
0.00018487788
0.00015618302
0.00013140722
0.00011009432
9.1830143e-05
7.6239689e-05
6.2984671e-05
5.1761085e-05
4.2296974e-05
3.4350121e-05
2.7705936e-05
2.2175157e-05
1.7591963e-05
1.3811363e-05
1.0708568e-05
8.1734473e-06
6.1183039e-06
4.4519449e-06
3.1377269e-06
2.0564724e-06
1.3062095e-06
6.0245024e-07
7.9046701e-07
1.3190307e-06
0.0068006608
0.005904985
0.0051421172
0.0044777309
0.003909737
0.0034226443
0.0030028369
0.0026389605
0.0023219121
0.00204429
0.0018001092
0.0015845828
0.0013938517
0.0012247535
0.0010746623
0.00094137197
0.00082300582
0.00071794794
0.00062479203
0.00054230259
0.00046938483
0.00040506114
0.00034845282
0.00029876564
0.00025527872
0.00021733585
0.00018433868
0.00015574127
0.00013104586
0.00010979918
9.1589477e-05
7.6043798e-05
6.282555e-05
5.1632137e-05
4.2192768e-05
3.4266191e-05
2.7638609e-05
2.2121412e-05
1.7549319e-05
1.3777784e-05
1.0682382e-05
8.153291e-06
6.1030654e-06
4.4407383e-06
3.1298326e-06
2.0513191e-06
1.3034754e-06
6.0081574e-07
7.8583125e-07
1.2937755e-06
0.0065641675
0.0057236565
0.0050013732
0.0043685861
0.0038259948
0.0033590402
0.0029545306
0.0026019982
0.0022933105
0.0020218348
0.001782195
0.0015700834
0.0013819835
0.0012149617
0.0010665428
0.00093462125
0.00081738801
0.00071327411
0.00062090733
0.00053907823
0.00046671269
0.00040285008
0.00034662599
0.0002972583
0.00025403646
0.00021631308
0.00018349734
0.0001550497
0.00013047779
0.00010933289
9.1207055e-05
7.5730478e-05
6.2569187e-05
5.1422742e-05
4.2022126e-05
3.4127536e-05
2.7526366e-05
2.2030981e-05
1.7476899e-05
1.3720233e-05
1.0637104e-05
8.1181433e-06
6.076292e-06
4.4209146e-06
3.1158146e-06
2.0421441e-06
1.298677e-06
5.9792494e-07
7.7656385e-07
1.2444389e-06
0.0062401586
0.0054759935
0.0048113629
0.0042242365
0.0037172617
0.0032776489
0.0028934169
0.0025555764
0.0022575011
0.0019937403
0.0017597829
0.0015519488
0.0013671541
0.0012027479
0.0010564386
0.00092624295
0.0008104354
0.00070750582
0.00061612547
0.00053511845
0.00046343755
0.00040014426
0.00034439266
0.00029541635
0.0002525181
0.00021506183
0.00018246632
0.00015420012
0.00012977766
0.00010875589
9.0731573e-05
7.5338802e-05
6.224679e-05
5.1157713e-05
4.1804674e-05
3.3949605e-05
2.7381302e-05
2.1913277e-05
1.738198e-05
1.3644296e-05
1.0576983e-05
8.0712034e-06
6.0403576e-06
4.3942035e-06
3.0968834e-06
2.0297708e-06
1.2922287e-06
5.9412581e-07
7.6265654e-07
1.1735434e-06
0.0058429043
0.0051734102
0.0045825007
0.0040546704
0.0035923379
0.0031854787
0.0028247974
0.0025036363
0.0022174113
0.0019622304
0.0017346344
0.001531634
0.0013506019
0.001189185
0.0010452872
0.00091705762
0.00080286413
0.00070126505
0.00061098347
0.00053088411
0.00045995249
0.00039727692
0.00034203378
0.00029347535
0.0002509201
0.00021374514
0.00018138023
0.00015330314
0.00012903592
0.00010814179
9.022267e-05
7.4916849e-05
6.1896934e-05
5.0867839e-05
4.1564867e-05
3.3751713e-05
2.7218586e-05
2.1780138e-05
1.7273742e-05
1.3557036e-05
1.0507404e-05
8.0165327e-06
5.9982792e-06
4.3628016e-06
3.074573e-06
2.0152395e-06
1.2846395e-06
5.8986453e-07
7.4423784e-07
1.084795e-06
0.0053845493
0.00482625
0.0043241546
0.0038679905
0.003457634
0.0030870124
0.0027515864
0.0024481299
0.0021744807
0.0019284825
0.0017077955
0.0015101112
0.0013332395
0.0011751239
0.0010338724
0.00090777781
0.00079531423
0.0006951203
0.00060598128
0.00052681098
0.00045663425
0.00039457143
0.00033982502
0.00029166882
0.00024943911
0.00021252761
0.00018037613
0.00015247228
0.00012834607
0.00010756723
8.9742837e-05
7.4515313e-05
6.1560529e-05
5.0585965e-05
4.1328928e-05
3.3554681e-05
2.7054651e-05
2.1644453e-05
1.716222e-05
1.3466204e-05
1.0434299e-05
7.9586159e-06
5.9533931e-06
4.3291396e-06
3.0505735e-06
1.9996891e-06
1.2764429e-06
5.8561729e-07
7.2151515e-07
9.826921e-07
0.0048769407
0.0044448506
0.0040446549
0.0036690704
0.0033152282
0.0029826613
0.002673459
0.0023887057
0.0021286849
0.0018928316
0.0016798613
0.0014881298
0.0013158864
0.0011613923
0.0010229894
0.00089914362
0.00078845891
0.00068967364
0.0006016503
0.00052336301
0.00045388427
0.00039237229
0.0003380599
0.00029024524
0.00024828416
0.00021158411
0.00017959947
0.00015182786
0.00012780718
0.00010711333
8.9358164e-05
7.4187775e-05
6.1280795e-05
5.0346774e-05
4.1124542e-05
3.3380484e-05
2.6906836e-05
2.1519812e-05
1.7057988e-05
1.3379959e-05
1.0363898e-05
7.9021505e-06
5.9091783e-06
4.2957344e-06
3.0266161e-06
1.9842709e-06
1.2681509e-06
5.8184187e-07
6.9476773e-07
8.7210048e-07
0.0043348722
0.0040410197
0.0037503899
0.0034571953
0.0031606916
0.0028678008
0.0025869993
0.0023233406
0.0020791957
0.0018553059
0.0016513741
0.001466492
0.0012994463
0.0011489002
0.0010135003
0.00089194095
0.00078299714
0.0006855359
0.00059851735
0.00052099
0.00045208337
0.00039099971
0.00033700603
0.00028942702
0.00024763917
0.000211066
0.00017917425
0.00015147101
0.00012750134
0.00010684643
8.9122046e-05
7.3977004e-05
6.109183e-05
5.0177317e-05
4.0973061e-05
3.3245882e-05
2.6788221e-05
2.1416359e-05
1.6968857e-05
1.3304266e-05
1.0300709e-05
7.8505012e-06
5.8680977e-06
4.2643486e-06
3.0038807e-06
1.9697566e-06
1.2600244e-06
5.7884266e-07
6.6430956e-07
7.5790375e-07
0.0037730564
0.0036197844
0.0034345662
0.0032169709
0.0029773087
0.0027287898
0.0024823078
0.002244991
0.0020209222
0.0018121589
0.0016195127
0.0014430122
0.0012821807
0.0011362371
0.0010042439
0.00088520464
0.00077812239
0.00068203222
0.00059601852
0.00051922224
0.00045084208
0.00039013243
0.00033639981
0.00028899901
0.00024732945
0.00021083209
0.00017898686
0.00015131065
0.00012735576
0.00010670857
8.8988415e-05
7.3846487e-05
6.0964768e-05
5.0054841e-05
4.0856613e-05
3.31369e-05
2.6687937e-05
2.1325701e-05
1.6888407e-05
1.3234269e-05
1.0241118e-05
7.8010285e-06
5.8282658e-06
4.2336736e-06
2.9814653e-06
1.9555644e-06
1.2515563e-06
5.7649134e-07
6.3060719e-07
6.4511589e-07
0.0032141355
0.00316821
0.0030671075
0.002920536
0.0027437924
0.0025494987
0.0023468909
0.0021437031
0.0019457253
0.0017566719
0.0015787448
0.0014131491
0.0012603662
0.001120353
0.00099272503
0.00087689668
0.00077217345
0.00067781219
0.00059305985
0.00051717713
0.00044945155
0.00038920391
0.00033579081
0.00028860499
0.0002470748
0.00021066317
0.0001788667
0.00015121477
0.00012726887
0.00010662201
8.8898149e-05
7.3751557e-05
6.0866117e-05
4.9954452e-05
4.0756886e-05
3.3040237e-05
2.6596478e-05
2.1241182e-05
1.6812101e-05
1.3166984e-05
1.0183257e-05
7.7526386e-06
5.7891113e-06
4.2034443e-06
2.9592868e-06
1.9416144e-06
1.2426856e-06
5.74662e-07
5.9493506e-07
5.3902754e-07
0.0026063017
0.0026220563
0.0025893584
0.0025107921
0.002400604
0.0022680046
0.0021193535
0.0019615427
0.0018009221
0.001642165
0.0014884985
0.0013421502
0.0012045484
0.0010764668
0.00095819804
0.00084970631
0.00075073613
0.00066089045
0.00057968694
0.00050659716
0.00044107267
0.00038256186
0.00033052074
0.00028441972
0.00024374794
0.00020801612
0.00017675841
0.00014953386
0.00012592734
0.00010555033
8.8041376e-05
7.3066243e-05
6.0317879e-05
4.951604e-05
4.0406661e-05
3.2760977e-05
2.6374431e-05
2.1065338e-05
1.667361e-05
1.3058729e-05
1.0099471e-05
7.6887528e-06
5.7412358e-06
4.1690084e-06
2.9349452e-06
1.9274505e-06
1.2325283e-06
5.7353016e-07
5.5772693e-07
4.4557434e-07
0.0020205273
0.0020707387
0.0020810187
0.002051008
0.0019919749
0.0019106743
0.0018108936
0.00169793
0.0015774574
0.00145395
0.0013307459
0.0012104136
0.0010948443
0.0009853091
0.00088258519
0.00078708394
0.00069894833
0.00061812685
0.00054443184
0.00047758363
0.00041724246
0.00036303122
0.00031455167
0.00027139605
0.00023315543
0.00019942591
0.0001698133
0.0001439368
0.00012143181
0.00010195222
8.5172123e-05
7.078706e-05
5.8514838e-05
4.8095917e-05
3.929343e-05
3.1892844e-05
2.5701342e-05
2.0546896e-05
1.6277312e-05
1.2758562e-05
9.8745924e-06
7.522794e-06
5.6207556e-06
4.0845536e-06
2.8765454e-06
1.8925326e-06
1.2078587e-06
5.6763496e-07
5.1002538e-07
3.5654424e-07
0.0015165753
0.0015896613
0.0016300266
0.0016373292
0.0016184029
0.0015781647
0.0015189562
0.0014445407
0.0013595813
0.0012680731
0.0011731892
0.0010775549
0.00098328246
0.00089195527
0.00080469646
0.00072226472
0.00064513202
0.00057354622
0.00050758479
0.00044719879
0.00039224689
0.00034252135
0.00029776777
0.00025770023
0.00022201291
0.00019038908
0.00016250822
0.00013805173
0.00011670753
9.8173769e-05
8.2161773e-05
6.8398341e-05
5.6627442e-05
4.6611373e-05
3.8131425e-05
3.0988118e-05
2.5001062e-05
2.0008454e-05
1.5866463e-05
1.2447934e-05
9.6422822e-06
7.3516491e-06
5.4966618e-06
3.9977277e-06
2.8163195e-06
1.8568115e-06
1.1813803e-06
5.625102e-07
4.580147e-07
2.7275281e-07
0.0010929922
0.0011780672
0.0012369816
0.001270187
0.001280679
0.0012717039
0.0012447963
0.0012024093
0.0011479988
0.001084853
0.001015771
0.00094320446
0.00086926246
0.00079565351
0.00072369962
0.00065439343
0.00058845191
0.00052636265
0.00046842744
0.00041480113
0.000365524
0.00032054792
0.00027975744
0.00024298685
0.00021003378
0.00018067025
0.00015465169
0.00013172432
0.00011163121
9.4117334e-05
7.8933657e-05
6.5840406e-05
5.4609651e-05
4.5027216e-05
3.6894011e-05
3.0026849e-05
2.4258811e-05
1.9439191e-05
1.5433239e-05
1.2121262e-05
9.3986136e-06
7.1725703e-06
5.3670809e-06
3.9071644e-06
2.7534211e-06
1.8193912e-06
1.1529061e-06
5.5730536e-07
4.0545285e-07
2.0077552e-07
0.00075229988
0.00083814442
0.00090496641
0.00095321087
0.00098305529
0.00099613404
0.00099335752
0.00097615758
0.00094680937
0.00090776739
0.00086131108
0.00080955218
0.00075441475
0.00069756229
0.00064037106
0.000583949
0.00052916385
0.00047667109
0.00042694376
0.00038030249
0.00033694272
0.00029695825
0.00026036139
0.0002271
0.00019707182
0.00017013653
0.00014612582
0.00012485195
0.00010611497
8.9708698e-05
7.5425846e-05
6.3062139e-05
5.2419685e-05
4.3309605e-05
3.5554008e-05
2.8987383e-05
2.3457474e-05
1.8825686e-05
1.4967201e-05
1.1770489e-05
9.1374291e-06
6.9808881e-06
5.2285277e-06
3.810248e-06
2.6860081e-06
1.7787967e-06
1.1217203e-06
5.5108122e-07
3.5447795e-07
1.4405934e-07
0.00049137757
0.00056895687
0.00063471932
0.00068850158
0.00072869876
0.00075553195
0.00076926193
0.000770515
0.00076055351
0.00074098889
0.00071349958
0.00067975335
0.00064136266
0.00059981093
0.00055640216
0.00051224838
0.00046827408
0.00042522616
0.00038368892
0.00034410296
0.00030678479
0.00027194543
0.0002397075
0.00021012062
0.00018317498
0.00015881327
0.00013694104
0.00011743572
0.00010015442
8.4940644e-05
7.1630046e-05
6.0055255e-05
5.0049895e-05
4.1451838e-05
3.4105764e-05
2.7865093e-05
2.2593354e-05
1.816504e-05
1.4466108e-05
1.1393899e-05
8.8574165e-06
6.7755848e-06
5.0802144e-06
3.7063102e-06
2.6135891e-06
1.7344602e-06
1.087699e-06
5.4315828e-07
3.0685304e-07
1.0379998e-07
0.0003017636
0.00036551735
0.00042374262
0.00047560997
0.00051865582
0.00055208654
0.00057553572
0.0005889791
0.00059287386
0.00058807265
0.00057564392
0.00055676654
0.00053266792
0.00050455728
0.0004735672
0.00044071926
0.0004069089
0.00037289987
0.00033932573
0.000306697
0.00027541186
0.00024576827
0.00021797646
0.00019217117
0.00016842318
0.00014675006
0.00012712587
0.00010948994
9.375473e-05
7.9812786e-05
6.75428e-05
5.6814884e-05
4.7495051e-05
3.9448948e-05
3.2544904e-05
2.6656326e-05
2.1663525e-05
1.7454989e-05
1.3928257e-05
1.0990236e-05
8.5576623e-06
6.5559856e-06
4.9216402e-06
3.5949256e-06
2.5358731e-06
1.6859836e-06
1.0509099e-06
5.3291967e-07
2.6394821e-07
7.9064987e-08
0.00017249874
0.0002200576
0.00026689407
0.00031175155
0.00035199403
0.00038627019
0.00041373285
0.00043386423
0.00044652543
0.00045195089
0.00045065371
0.00044333419
0.00043081511
0.00041398215
0.00039372889
0.00037091472
0.00034633562
0.00032070626
0.00029465058
0.00026869872
0.00024328879
0.00021877193
0.00019541925
0.0001734299
0.0001529396
0.00013402919
0.0001167329
0.0001010462
8.6933075e-05
7.433276e-05
6.3165745e-05
5.3339166e-05
4.4751501e-05
3.7296609e-05
3.086711e-05
2.535716e-05
2.0664638e-05
1.6692805e-05
1.3351508e-05
1.0557872e-05
8.2369553e-06
6.3212012e-06
4.7521633e-06
3.4756036e-06
2.452554e-06
1.6330298e-06
1.0115044e-06
5.1988219e-07
2.2657875e-07
6.7031852e-08
9.212169e-05
0.00012343799
0.0001572852
0.00019226142
0.00022596988
0.00025688661
0.0002839036
0.00030618993
0.00032320979
0.00033474437
0.00034085333
0.00034181382
0.00033806702
0.00033016969
0.00031874662
0.00030444931
0.00028792314
0.00026978163
0.00025058881
0.00023084825
0.00021099743
0.00019140606
0.00017237735
0.00015415148
0.00013691048
0.00012078396
0.00010585524
9.2167666e-05
7.9730801e-05
6.8526397e-05
5.8513985e-05
4.9636036e-05
4.1822599e-05
3.4995415e-05
2.9071469e-05
2.3965988e-05
1.9594905e-05
1.5876804e-05
1.2734423e-05
1.0095662e-05
7.8944355e-06
6.0706143e-06
4.571366e-06
3.3480672e-06
2.3635132e-06
1.5754993e-06
9.6979001e-07
5.0385772e-07
1.9505088e-07
6.371309e-08
4.9822299e-05
6.6322437e-05
8.7255911e-05
0.00011128756
0.00013645163
0.00016131235
0.00018471497
0.00020569702
0.00022350702
0.00023763804
0.00024782289
0.00025400334
0.00025629545
0.00025495507
0.00025034211
0.00024288516
0.00023305013
0.00022131391
0.00020814259
0.0001939752
0.00017921261
0.00016421051
0.0001492757
0.00013466508
0.00012058671
0.0001072024
9.4631333e-05
8.2954367e-05
7.2218685e-05
6.2442629e-05
5.3620469e-05
4.5727003e-05
3.8721868e-05
3.2553481e-05
2.7162554e-05
2.2485168e-05
1.8455372e-05
1.5007324e-05
1.2077008e-05
9.6035009e-06
7.5300026e-06
5.8041839e-06
4.3792792e-06
3.2124182e-06
2.268936e-06
1.5136138e-06
9.2624043e-07
4.8500649e-07
1.6927487e-07
6.4941768e-08
3.6100526e-05
3.9990592e-05
4.9170255e-05
6.2491255e-05
7.8467522e-05
9.5892316e-05
0.0001137208
0.00013100996
0.00014694437
0.00016087669
0.00017234196
0.00018104991
0.00018686913
0.00018980776
0.00018999076
0.00018763441
0.00018302055
0.00017647283
0.00016833576
0.00015895669
0.00014867154
0.00013779424
0.00012660921
0.00011536669
0.00010428035
9.3526769e-05
8.3246441e-05
7.354581e-05
6.4500137e-05
5.615686e-05
4.853924e-05
4.1650115e-05
3.5475601e-05
2.9988626e-05
2.5152213e-05
2.0922438e-05
1.7251022e-05
1.4087553e-05
1.1381319e-05
9.0827571e-06
7.1446227e-06
5.5226521e-06
4.1765206e-06
3.0692237e-06
2.1693625e-06
1.4479385e-06
8.8147469e-07
4.6382114e-07
1.4889182e-07
6.7289023e-08
4.3026671e-05
3.6780124e-05
3.5946994e-05
3.9608718e-05
4.6726219e-05
5.637176e-05
6.7696354e-05
7.9878087e-05
9.2149719e-05
0.00010384153
0.00011440507
0.00012341995
0.0001305927
0.00013575106
0.00013883347
0.00013987428
0.00013898623
0.00013634209
0.00013215692
0.00012667167
0.00012013863
0.00011280917
0.00010492415
9.6706698e-05
8.8357098e-05
8.0049692e-05
7.1931391e-05
6.4121544e-05
5.6712886e-05
4.9773277e-05
4.3348019e-05
3.746254e-05
3.2125262e-05
2.7330519e-05
2.3061402e-05
1.9292426e-05
1.5991976e-05
1.3124459e-05
1.0652161e-05
8.5367766e-06
6.7406743e-06
5.2277701e-06
3.9644296e-06
2.9195809e-06
2.0657057e-06
1.3793469e-06
8.3619905e-07
4.4102374e-07
1.333385e-07
6.860372e-08
6.4231134e-05
5.0254957e-05
4.1355938e-05
3.6837132e-05
3.6034429e-05
3.8291149e-05
4.2980685e-05
4.9453218e-05
5.7058778e-05
6.5187612e-05
7.3296487e-05
8.0922385e-05
8.7690508e-05
9.3318375e-05
9.7615294e-05
0.00010047708
0.000101877
0.00010185434
0.00010050165
9.7951718e-05
9.436508e-05
8.9918339e-05
8.4794043e-05
7.9172294e-05
7.3224049e-05
6.7106146e-05
6.0957856e-05
5.4898861e-05
4.90284e-05
4.3425417e-05
3.8149465e-05
3.3242199e-05
2.872926e-05
2.4622412e-05
2.0921773e-05
1.7618049e-05
1.4694666e-05
1.2129735e-05
9.8978156e-06
7.9714269e-06
6.3223351e-06
4.9225544e-06
3.7452233e-06
2.7651899e-06
1.9592709e-06
1.3089799e-06
7.9116251e-07
4.1744626e-07
1.2188205e-07
6.805117e-08
9.4751385e-05
7.5198368e-05
6.0136832e-05
4.9057892e-05
4.1587736e-05
3.7302147e-05
3.5783864e-05
3.6565554e-05
3.9145086e-05
4.3019865e-05
4.7711018e-05
5.27785e-05
5.7832954e-05
6.2545336e-05
6.665301e-05
6.9961669e-05
7.2343479e-05
7.3732235e-05
7.4116317e-05
7.353016e-05
7.2044981e-05
6.9759366e-05
6.6790234e-05
6.3264615e-05
5.9312535e-05
5.5061104e-05
5.0629855e-05
4.6127309e-05
4.1648691e-05
3.7274644e-05
3.3070818e-05
2.9088171e-05
2.5363804e-05
2.1922219e-05
1.877683e-05
1.5931619e-05
1.3382837e-05
1.1120664e-05
9.1307566e-06
7.3956515e-06
5.8959938e-06
4.6115723e-06
3.522176e-06
2.6084445e-06
1.8517839e-06
1.2382038e-06
7.4712401e-07
3.9391055e-07
1.1364841e-07
6.5742161e-08
0.00013081751
0.00010750426
8.7995548e-05
7.19296e-05
5.9141606e-05
4.9389802e-05
4.2432389e-05
3.7968453e-05
3.5645258e-05
3.5085086e-05
3.5904815e-05
3.7729025e-05
4.0201843e-05
4.2998319e-05
4.5833738e-05
4.8469918e-05
5.0718424e-05
5.2441022e-05
5.3547738e-05
5.3992931e-05
5.3769871e-05
5.2904363e-05
5.1447918e-05
4.9470901e-05
4.7056036e-05
4.4292554e-05
4.1271117e-05
3.8079655e-05
3.4800118e-05
3.1506143e-05
2.8261537e-05
2.5119514e-05
2.2122541e-05
1.9302698e-05
1.6682418e-05
1.4275493e-05
1.2088246e-05
1.0120784e-05
8.3682412e-06
6.8219734e-06
5.4706512e-06
4.3012438e-06
3.2998302e-06
2.4525599e-06
1.7454589e-06
1.1686147e-06
7.048734e-07
3.7116872e-07
1.0771497e-07
6.2220844e-08
0.00016962845
0.00014402166
0.00012152603
0.00010188884
8.5084851e-05
7.1005251e-05
5.9542816e-05
5.0533527e-05
4.3757427e-05
3.8958253e-05
3.585773e-05
3.41651e-05
3.3586735e-05
3.383658e-05
3.4645948e-05
3.5771541e-05
3.7001431e-05
3.815896e-05
3.9104613e-05
3.9735956e-05
3.9985867e-05
3.981939e-05
3.9229602e-05
3.8232846e-05
3.6863706e-05
3.5170015e-05
3.3208174e-05
3.1038932e-05
2.8723786e-05
2.6322039e-05
2.3888552e-05
2.1472154e-05
1.9114658e-05
1.6850411e-05
1.4706286e-05
1.2702026e-05
1.0850846e-05
9.1602024e-06
7.6326715e-06
6.2668486e-06
5.0582371e-06
4.0001026e-06
3.0841972e-06
2.3017123e-06
1.6430893e-06
1.1020794e-06
6.6528844e-07
3.498977e-07
1.0325527e-07
5.8064831e-08
0.00020914808
0.00018238874
0.00015809532
0.00013609317
0.00011644221
9.9123825e-05
8.4126046e-05
7.1388389e-05
6.0798347e-05
5.2205064e-05
4.5428836e-05
4.0266871e-05
3.6499804e-05
3.3899803e-05
3.2239036e-05
3.1297441e-05
3.0869455e-05
3.0769519e-05
3.0836197e-05
3.0934786e-05
3.0958408e-05
3.0827706e-05
3.0489352e-05
2.9913589e-05
2.9091113e-05
2.8029516e-05
2.6749596e-05
2.5281716e-05
2.366241e-05
2.1931355e-05
2.0128799e-05
1.8293489e-05
1.6461107e-05
1.4663185e-05
1.292646e-05
1.1272604e-05
9.7182716e-06
8.2753809e-06
6.951566e-06
5.7507446e-06
4.6737399e-06
3.7189404e-06
2.8828916e-06
2.1611529e-06
1.5481391e-06
1.0408042e-06
6.2942178e-07
3.30748e-07
9.9696462e-08
5.3712129e-08
0.00024793171
0.00022087679
0.00019571734
0.00017233368
0.00015083117
0.00013124763
0.00011363296
9.7998972e-05
8.4313417e-05
7.250923e-05
6.2490281e-05
5.4133952e-05
4.729465e-05
4.180918e-05
3.7503035e-05
3.4196717e-05
3.1711821e-05
2.9876636e-05
2.8531068e-05
2.7530619e-05
2.6749282e-05
2.6081304e-05
2.5441846e-05
2.4766633e-05
2.4010764e-05
2.3146831e-05
2.2162574e-05
2.1058254e-05
1.984394e-05
1.8536849e-05
1.715889e-05
1.5734474e-05
1.4288683e-05
1.2845789e-05
1.142816e-05
1.0055499e-05
8.7444074e-06
7.5082093e-06
6.3569926e-06
5.297818e-06
4.3350429e-06
3.4707425e-06
2.7051255e-06
2.0372319e-06
1.4647845e-06
9.8738685e-07
5.9857248e-07
3.1440567e-07
9.6807385e-08
4.9458274e-08
0.00028498486
0.00025825371
0.00023293139
0.00020893687
0.00018639376
0.00016537152
0.00014595593
0.0001282049
0.00011214159
9.7760503e-05
8.5030659e-05
7.3895884e-05
6.4275932e-05
5.6069359e-05
4.9157532e-05
4.3409035e-05
3.8684339e-05
3.4840534e-05
3.1735961e-05
2.9234442e-05
2.720893e-05
2.5544419e-05
2.4140033e-05
2.2910279e-05
2.1785482e-05
2.0711478e-05
1.9648701e-05
1.8570765e-05
1.7462725e-05
1.6319137e-05
1.5142067e-05
1.3939149e-05
1.2721793e-05
1.1503599e-05
1.0299032e-05
9.1223528e-06
7.9868305e-06
6.9041932e-06
5.8843097e-06
4.9350604e-06
4.0623623e-06
3.2703307e-06
2.5614919e-06
1.9372811e-06
1.3978615e-06
9.4481686e-07
5.7431419e-07
3.0164029e-07
9.4686114e-08
4.550828e-08
0.00031965101
0.00029367001
0.00026869348
0.00024466813
0.0002217184
0.00019992829
0.00017940063
0.00016021924
0.0001424421
0.00012610541
0.00011122514
9.7795894e-05
8.5790379e-05
7.5160413e-05
6.5838932e-05
5.774254e-05
5.0774558e-05
4.4828425e-05
3.9791383e-05
3.5548187e-05
3.1984657e-05
2.8990901e-05
2.6464077e-05
2.4310584e-05
2.2447633e-05
2.0804179e-05
1.9321246e-05
1.7951702e-05
1.6659571e-05
1.5419e-05
1.4212964e-05
1.3031849e-05
1.1871977e-05
1.073419e-05
9.6225267e-06
8.5430655e-06
7.502943e-06
6.5095733e-06
5.5700584e-06
4.6907843e-06
3.8771787e-06
3.133627e-06
2.4634722e-06
1.8692991e-06
1.3526789e-06
9.1638472e-07
5.5845086e-07
2.933113e-07
9.3661467e-08
4.200867e-08
0.00035152382
0.00032656581
0.00030228322
0.00027864342
0.00025576143
0.00023372477
0.00021264052
0.00019260392
0.00017369204
0.00015596662
0.00013947462
0.00012424643
0.00011029444
9.7612707e-05
8.6177523e-05
7.5948462e-05
6.6869928e-05
5.8873185e-05
5.1878849e-05
4.5799649e-05
4.0543348e-05
3.6015656e-05
3.2123008e-05
2.8775068e-05
2.5886881e-05
2.338057e-05
2.1186558e-05
1.924431e-05
1.7502602e-05
1.591938e-05
1.4461274e-05
1.3102838e-05
1.1825608e-05
1.0617057e-05
9.4695053e-06
8.3790686e-06
7.3446846e-06
6.367246e-06
5.4488717e-06
4.592322e-06
3.8005583e-06
3.0764534e-06
2.4226004e-06
1.8413901e-06
1.3346585e-06
9.0547384e-07
5.5288961e-07
2.9032359e-07
9.4164721e-08
3.9055122e-08
0.00038037783
0.00035659551
0.00033322548
0.00031025129
0.00028777325
0.00026587582
0.00024466239
0.00022422985
0.00020466316
0.00018603739
0.00016841774
0.00015185759
0.00013639667
0.00012206002
0.00010885761
9.6784275e-05
8.5820159e-05
7.5931533e-05
6.7072142e-05
5.9184917e-05
5.2204018e-05
4.6057059e-05
4.0667469e-05
3.5956808e-05
3.1846997e-05
2.8262305e-05
2.5131065e-05
2.2387034e-05
1.9970387e-05
1.7828327e-05
1.5915341e-05
1.4193135e-05
1.2630306e-05
1.1201793e-05
9.8881948e-06
8.6749983e-06
7.5517722e-06
6.5113863e-06
5.5492808e-06
4.662821e-06
3.8507523e-06
3.1127758e-06
2.4492115e-06
1.8609024e-06
1.3487653e-06
9.152095e-07
5.5942353e-07
2.9352936e-07
9.6614302e-08
3.6696353e-08
0.00040611481
0.00038356809
0.00036122638
0.00033908679
0.00031723285
0.00029574246
0.00027471086
0.00025423062
0.0002343872
0.00021526038
0.00019692413
0.00017944477
0.00016287907
0.00014727294
0.00013266052
0.00011906347
0.00010649062
9.4937913e-05
8.4388804e-05
7.4815045e-05
6.6177806e-05
5.8429114e-05
5.1513536e-05
4.5370017e-05
3.9933803e-05
3.5138344e-05
3.0917101e-05
2.7205176e-05
2.3940718e-05
2.1066049e-05
1.8528498e-05
1.6280938e-05
1.4282042e-05
1.2496284e-05
1.0893734e-05
9.4496734e-06
8.1441107e-06
6.9612106e-06
5.8887036e-06
4.917305e-06
4.0401729e-06
3.2524382e-06
2.5507912e-06
1.9332674e-06
1.3987236e-06
9.479603e-07
5.7942806e-07
3.0358114e-07
1.0132797e-07
3.4943186e-08
0.00042871762
0.00040739514
0.00038611673
0.0003648915
0.00034378609
0.00032287046
0.0003022297
0.00028194884
0.00026210937
0.00024279023
0.00022406765
0.00020601355
0.00018869381
0.00017216697
0.00015648306
0.00014168261
0.00012779583
0.00011484198
0.00010282912
9.175412e-05
8.1603062e-05
7.2351868e-05
6.3967294e-05
5.6408143e-05
4.9626681e-05
4.3570182e-05
3.8182533e-05
3.3405827e-05
2.9181878e-05
2.5453594e-05
2.2166166e-05
1.9268033e-05
1.6711621e-05
1.4453833e-05
1.2456318e-05
1.0685536e-05
9.1126434e-06
7.7132535e-06
6.467087e-06
5.3575683e-06
4.3713941e-06
3.498114e-06
2.7297212e-06
2.0603881e-06
1.4859155e-06
1.0046281e-06
6.1343565e-07
3.2071876e-07
1.0844119e-07
3.377707e-08
0.00044821995
0.00042805591
0.00040781267
0.00038751064
0.00036720049
0.00034694413
0.00032681615
0.00030689276
0.00028724921
0.00026796041
0.00024910076
0.00023074286
0.00021295609
0.00019580542
0.00017935017
0.00016364304
0.00014872896
0.00013464427
0.00012141599
0.00010906133
9.758753e-05
8.699186e-05
7.7261971e-05
6.8376492e-05
6.0305879e-05
5.3013472e-05
4.6456717e-05
4.0588503e-05
3.5358546e-05
3.0714766e-05
2.6604602e-05
2.2976213e-05
1.9779527e-05
1.6967109e-05
1.4494839e-05
1.2322385e-05
1.0413496e-05
8.736119e-06
7.262367e-06
5.9683764e-06
4.8340725e-06
3.8428898e-06
2.9814459e-06
2.2393072e-06
1.6084562e-06
1.0840488e-06
6.6078301e-07
3.4459966e-07
1.1786378e-07
3.3157067e-08
0.00046465994
0.00044554575
0.00042625942
0.00040683225
0.00038730051
0.00036771876
0.00034815173
0.0003286669
0.00030933249
0.00029021791