/*--------------------------------*- C++ -*----------------------------------*\
  =========                 |
  \\      /  F ield         | OpenFOAM: The Open Source CFD Toolbox
   \\    /   O peration     | Website:  https://openfoam.org
    \\  /    A nd           | Version:  6
     \\/     M anipulation  |
\*---------------------------------------------------------------------------*/
FoamFile
{
    version     2.0;
    format      ascii;
    class       volVectorField;
    location    "223";
    object      U_0;
}
// * * * * * * * * * * * * * * * * * * * * * * * * * * * * * * * * * * * * * //

dimensions      [0 1 -1 0 0 0 0];

internalField   nonuniform List<vector> 
9200
(
(0.0010393461 0.0014199823 -5.9201843e-20)
(0.013676067 -0.0020583666 4.6042532e-20)
(0.038313166 -0.0058665678 -3.8501738e-20)
(0.072274437 -0.0097635048 -6.0257748e-20)
(0.11376474 -0.013490028 1.8826966e-20)
(0.16158089 -0.016605657 3.2743881e-20)
(0.21467148 -0.018817284 -1.2268009e-20)
(0.27206608 -0.019973889 9.2688628e-21)
(0.33285622 -0.020011221 1.6803426e-20)
(0.39616347 -0.01892905 1.4848073e-21)
(0.46111556 -0.016779813 -2.1456338e-20)
(0.52683687 -0.013657728 2.0670007e-20)
(0.59245068 -0.0096879935 -4.0422155e-20)
(0.65709131 -0.0050157704 -2.1133904e-20)
(0.71992471 0.00020556917 5.9046532e-21)
(0.78017501 0.0058241045 -2.5131676e-20)
(0.83717059 0.011712824 2.5217121e-20)
(0.89046875 0.017918525 2.2243185e-20)
(0.9396707 0.024573427 -2.9930842e-22)
(0.98205186 0.028293398 -1.6692099e-21)
(0.0052521802 -0.0013462729 -1.7059353e-20)
(0.026962501 -0.0089890259 3.9747708e-20)
(0.061670115 -0.014809763 2.3576297e-20)
(0.10629489 -0.019172268 -1.1569757e-19)
(0.15873565 -0.022213994 -1.2727089e-20)
(0.21753351 -0.023720682 7.3297078e-20)
(0.28137296 -0.023595092 -3.54764e-20)
(0.34900601 -0.02186896 -8.3905569e-21)
(0.4192392 -0.018645518 3.4287542e-20)
(0.49090943 -0.014080834 -4.3259582e-20)
(0.56287231 -0.0083759426 -3.0338483e-20)
(0.63400846 -0.0017665852 7.1921438e-20)
(0.70324329 0.0054884047 3.8294053e-20)
(0.76957581 0.013118643 -6.7976561e-20)
(0.83211245 0.020852094 1.4623689e-20)
(0.89010036 0.028419717 -3.6733396e-20)
(0.94296916 0.035569686 -1.3777195e-20)
(0.9904323 0.042140898 7.0974724e-20)
(1.032356 0.047715321 2.96419e-20)
(1.0669348 0.049139702 -8.3478159e-20)
(0.010858426 -0.0040424156 3.6773457e-20)
(0.043953413 -0.015431076 2.5047373e-21)
(0.090515434 -0.022552281 2.2341712e-20)
(0.14711139 -0.026497357 9.8116821e-22)
(0.21134254 -0.027886295 -4.0773938e-20)
(0.28146767 -0.026795112 1.8576402e-20)
(0.3558704 -0.023382725 1.34203e-20)
(0.43299006 -0.017921533 -5.0327704e-20)
(0.51132476 -0.010735646 5.726186e-20)
(0.58942613 -0.0021838757 1.4256688e-20)
(0.66590915 0.0073479104 -5.4300712e-20)
(0.73948035 0.017460268 -1.8237403e-20)
(0.80897597 0.027756567 9.0591644e-21)
(0.87340263 0.037859276 2.3444739e-20)
(0.93197361 0.047424047 -1.1362505e-20)
(0.98413366 0.056148976 2.7877724e-20)
(1.029574 0.063789176 -2.018823e-20)
(1.0682645 0.070204393 -7.0123566e-20)
(1.1003321 0.075119377 -2.37963e-20)
(1.1249112 0.076641236 4.8659747e-20)
(0.017957214 -0.0064221632 2.4508015e-20)
(0.064776995 -0.020694799 5.1039223e-20)
(0.12485228 -0.028060846 1.9881694e-20)
(0.19446966 -0.030464064 1.2990095e-20)
(0.27094931 -0.029094839 1.7275702e-20)
(0.35224879 -0.024388976 -4.7720171e-20)
(0.43643138 -0.01682597 -2.5646856e-20)
(0.52162007 -0.0069766675 0)
(0.60602895 0.0045670349 1.3920616e-20)
(0.68798706 0.017211734 -5.8523387e-21)
(0.76597517 0.030373924 -9.793495e-20)
(0.83867446 0.043499634 -1.5774819e-20)
(0.90501525 0.056086619 6.5103201e-20)
(0.96421569 0.067704137 4.8442935e-22)
(1.0158035 0.078007716 -1.5725568e-21)
(1.0596155 0.086746794 2.1957495e-20)
(1.0957773 0.093772229 -5.2647216e-21)
(1.12468 0.099065335 -6.1029744e-20)
(1.1468647 0.10259708 -4.585132e-20)
(1.1622957 0.10341385 6.9520665e-20)
(0.02657942 -0.0082056879 -3.9194203e-21)
(0.089344019 -0.024033505 -5.1256318e-21)
(0.16430754 -0.030264987 5.6599408e-20)
(0.24758119 -0.029810018 1.8539324e-20)
(0.3362416 -0.024513025 -3.1955066e-20)
(0.42795125 -0.015239857 1.2163839e-20)
(0.52047261 -0.0028513603 2.6402862e-21)
(0.61166357 0.011737098 3.3609169e-20)
(0.69954711 0.027640144 5.6599505e-21)
(0.78236837 0.044028771 -1.320474e-20)
(0.85865405 0.060147726 6.0154038e-20)
(0.9272691 0.075340473 -5.800936e-20)
(0.98745675 0.089072863 -1.3216614e-19)
(1.0388531 0.10094902 -5.5773041e-21)
(1.0814725 0.11071709 8.3150784e-20)
(1.1156655 0.11826405 0)
(1.1420548 0.12360583 1.0118959e-20)
(1.1614668 0.12689056 -1.5459776e-20)
(1.1748179 0.12829871 -8.5994809e-21)
(1.1826673 0.12744916 2.0992268e-20)
(0.036666909 -0.0090895795 -5.4309123e-21)
(0.11731511 -0.024685357 4.3578745e-21)
(0.20811868 -0.028140177 -8.7629837e-21)
(0.30515702 -0.023414953 2.8472394e-20)
(0.40533539 -0.013075589 -2.9392664e-20)
(0.50607147 0.0015226174 -1.6927023e-20)
(0.6049049 0.019095142 3.7364232e-20)
(0.69954959 0.038365257 4.7595452e-21)
(0.78800392 0.058167648 -2.4436057e-20)
(0.86863405 0.077483007 6.9867559e-20)
(0.94023973 0.095458645 5.2393967e-22)
(1.0020956 0.11143157 -8.0444316e-20)
(1.0539569 0.12494291 0)
(1.0960273 0.1357375 3.9542115e-20)
(1.1288922 0.14374843 5.5235993e-21)
(1.1534278 0.14906893 -7.7566405e-20)
(1.170699 0.15191914 -1.9586924e-20)
(1.1818623 0.15262369 -1.2467632e-20)
(1.1880592 0.15152606 -1.470939e-20)
(1.190146 0.14858493 4.0420555e-20)
(0.048058868 -0.008767405 -1.7277958e-20)
(0.1480831 -0.021931993 -2.2198288e-21)
(0.2551407 -0.020797833 3.0380503e-20)
(0.36546384 -0.010412792 3.7484307e-20)
(0.47590421 0.0059015899 -1.9944733e-20)
(0.58374266 0.026269309 -6.916303e-20)
(0.68644185 0.048977211 -2.7995796e-20)
(0.78176203 0.072417791 7.8929209e-20)
(0.86790196 0.09521248 8.5778134e-21)
(0.94358916 0.11624961 -2.4873482e-20)
(1.0081258 0.13469827 1.3642213e-20)
(1.061387 0.15001555 -4.3194485e-21)
(1.1037693 0.16193659 0)
(1.1360975 0.17044428 2.7203483e-20)
(1.1595046 0.17572309 -7.9322414e-20)
(1.175302 0.1781037 -3.1475529e-20)
(1.184857 0.17800813 8.1054577e-20)
(1.1894921 0.17590946 -4.2969887e-21)
(1.1904029 0.17225559 3.5561048e-21)
(1.188508 0.16719299 2.711156e-20)
(0.060485251 -0.0069573639 -3.2414614e-20)
(0.18077772 -0.01517038 -8.1624319e-20)
(0.30388929 -0.0075835261 2.5797735e-21)
(0.42642556 0.0097033573 7.0161809e-20)
(0.54535149 0.032631555 6.2424374e-20)
(0.65798101 0.058820044 -7.1574518e-20)
(0.76190883 0.086176509 -2.8275066e-22)
(0.85518291 0.11285231 8.5522546e-20)
(0.93645346 0.13737838 4.8828068e-20)
(1.0050415 0.1586937 -5.4218406e-20)
(1.0609356 0.17613563 -9.2334214e-20)
(1.1047242 0.18941354 -3.1589826e-21)
(1.1374759 0.19855944 4.2127866e-20)
(1.1605873 0.20385857 -6.6056271e-21)
(1.1756247 0.2057702 -1.2868785e-20)
(1.1841776 0.20484919 1.9690805e-20)
(1.1877427 0.20167898 4.3880615e-20)
(1.1876453 0.19682588 -4.3859423e-20)
(1.1849954 0.19077884 -1.0232197e-19)
(1.180625 0.1837738 2.4566858e-20)
(0.073537216 -0.0034329734 -3.497975e-20)
(0.21422687 -0.0039890254 -1.7388611e-19)
(0.35251657 0.011839376 8.2103243e-20)
(0.48562798 0.037018337 9.2767514e-20)
(0.61085379 0.066835552 5.7970565e-20)
(0.72576726 0.098481178 8.6107092e-21)
(0.82834802 0.12959696 -1.0624009e-19)
(0.91718997 0.15824269 0)
(0.99162744 0.18302814 -6.8748587e-20)
(1.0517521 0.20311206 -1.5202409e-20)
(1.0983384 0.21814861 5.4703464e-20)
(1.1327008 0.22821083 1.0973379e-20)
(1.156511 0.2336926 -4.5613853e-20)
(1.1716067 0.23519947 -4.908136e-20)
(1.1798204 0.23344336 2.4287679e-20)
(1.182845 0.22915324 4.482289e-20)
(1.1821488 0.22300986 -5.5600406e-20)
(1.178936 0.21560823 -1.0751121e-19)
(1.1741468 0.20742225 -3.151364e-21)
(1.1684567 0.19871881 2.7046395e-20)
(0.086650446 0.001961386 -3.5448997e-21)
(0.24696019 0.011816634 8.7913242e-20)
(0.39884739 0.03749231 -1.6479241e-20)
(0.54040465 0.071218382 -8.4309149e-20)
(0.66949902 0.10778893 4.516437e-20)
(0.78421952 0.14411543 4.917545e-20)
(0.8831894 0.17775668 5.535678e-21)
(0.9657787 0.2068849 -9.9502486e-20)
(1.0321763 0.23038802 -2.5048779e-21)
(1.0833328 0.24781553 5.0503542e-20)
(1.120807 0.25926301 5.9854758e-21)
(1.1465558 0.2652362 -1.9717206e-20)
(1.1627107 0.26650533 -7.5704626e-20)
(1.1713765 0.26396622 -6.2554021e-21)
(1.1744762 0.2585243 4.3533352e-20)
(1.1736548 0.25101089 3.7022012e-20)
(1.1702383 0.24213395 1.9793441e-20)
(1.1652402 0.23245875 -5.2994841e-20)
(1.1594014 0.22240418 1.2957452e-20)
(1.1532252 0.212238 8.2659096e-20)
(-0.0012932615 0.0014346598 -1.1234441e-21)
(-0.0047459602 0.0031874148 2.0646967e-21)
(-0.010771359 0.004135904 8.7950185e-22)
(-0.017754287 0.0045395359 -2.441102e-21)
(-0.024740317 0.0045654165 -1.411483e-21)
(-0.031299592 0.0043260385 1.5460009e-21)
(-0.037161326 0.0039035381 -6.8700818e-21)
(-0.042147441 0.0033577217 -5.9573038e-21)
(-0.046157775 0.0027313812 1.1171998e-20)
(-0.049146188 0.0020548306 -9.7427495e-21)
(-0.051100652 0.0013493004 -1.9833013e-22)
(-0.052030442 0.00062942199 3.6673444e-21)
(-0.051957736 -9.4889385e-05 -6.3295587e-22)
(-0.05091188 -0.00081693027 2.2818745e-20)
(-0.048925777 -0.0015318446 3.0401114e-22)
(-0.046035341 -0.0022351738 -4.0882873e-20)
(-0.042281798 -0.0029222678 7.5385616e-21)
(-0.037703443 -0.0035910382 2.3864111e-20)
(-0.032308696 -0.0042399862 -4.3852375e-20)
(-0.026156966 -0.0048211128 -2.7739205e-20)
(-0.0016521999 0.0041808662 -5.3716032e-21)
(-0.005397481 0.009268138 1.0865438e-20)
(-0.011218509 0.012007443 -1.0191544e-20)
(-0.017658025 0.013153764 3.9229755e-21)
(-0.023856432 0.013195413 4.8121452e-21)
(-0.029433317 0.012462724 7.1324196e-22)
(-0.034152319 0.011197013 -2.2509492e-20)
(-0.037860377 0.0095738967 -2.0370243e-21)
(-0.040474297 0.0077189871 2.0163542e-20)
(-0.04195892 0.0057212304 -5.0473604e-21)
(-0.042308949 0.0036428646 -2.1762591e-20)
(-0.041537336 0.0015267129 4.8973172e-21)
(-0.039667712 -0.00059830511 2.2635423e-20)
(-0.036729082 -0.0027127605 1.0308391e-20)
(-0.032752035 -0.0048026885 2.1854286e-20)
(-0.027769172 -0.0068555077 -1.9770729e-20)
(-0.021824798 -0.0088582187 -2.1672944e-20)
(-0.014966275 -0.010804224 2.1184617e-20)
(-0.0071290233 -0.012679 2.6810365e-20)
(0.0018742877 -0.014317222 1.5854767e-20)
(-0.0023034291 0.0065602326 -4.3568691e-21)
(-0.0065392237 0.014480195 -5.6387541e-21)
(-0.011892131 0.018710543 3.0723925e-22)
(-0.017211098 0.02042818 1.0959871e-21)
(-0.021819141 0.020400323 6.6918411e-21)
(-0.02543104 0.019151665 1.066517e-20)
(-0.027877231 0.017066287 -3.7227642e-21)
(-0.029053268 0.014423782 -1.8896166e-20)
(-0.028909036 0.011424352 6.5413178e-21)
(-0.02743105 0.008209905 1.2862571e-20)
(-0.024627714 0.0048797762 5.8340855e-21)
(-0.02052011 0.0015022389 1.8159107e-20)
(-0.015135988 -0.0018768628 1.7295916e-21)
(-0.008505402 -0.0052272471 -3.386453e-20)
(-0.00065689741 -0.0085276091 1.2020171e-21)
(0.0083810109 -0.011759108 -2.2139211e-20)
(0.018556859 -0.014904095 -2.4466303e-20)
(0.02980217 -0.01795375 4.581971e-20)
(0.042304951 -0.020855114 2.5349347e-20)
(0.056738555 -0.023247763 1.2239218e-22)
(-0.0031290275 0.0083689699 -5.2833073e-21)
(-0.0078963987 0.018336512 -8.4815285e-21)
(-0.012438986 0.023587808 4.3593049e-21)
(-0.016026534 0.025609658 4.1463455e-21)
(-0.018235023 0.025382744 2.0105708e-21)
(-0.018912651 0.023589321 7.3209967e-21)
(-0.017984717 0.020730272 9.3124791e-21)
(-0.01541671 0.017170377 -1.3511357e-21)
(-0.011207049 0.013171314 -1.1481948e-20)
(-0.0053752361 0.0089189316 -2.907188e-20)
(0.0020481072 0.0045434375 6.1892364e-23)
(0.011026502 0.00013431158 4.0697824e-20)
(0.021522216 -0.0042489501 -1.8383173e-20)
(0.03349784 -0.0085675837 -1.2296088e-20)
(0.046920498 -0.012795544 5.5348951e-22)
(0.061760078 -0.016911853 3.2302644e-20)
(0.077952993 -0.020901667 -1.4829544e-20)
(0.09539224 -0.024763373 -5.3339185e-20)
(0.11439842 -0.028379714 4.576501e-20)
(0.13634535 -0.031073091 3.3013172e-20)
(-0.0039704095 0.0094657321 -6.8788985e-22)
(-0.0090916578 0.020487791 -1.253474e-20)
(-0.012364471 0.026159086 -3.4144537e-20)
(-0.01355254 0.028143337 -5.7241629e-21)
(-0.01253324 0.027555006 -3.6222739e-21)
(-0.0093167251 0.025188064 6.3051043e-21)
(-0.0039456461 0.021627411 -4.6461967e-21)
(0.003526126 0.01729896 -8.8070282e-21)
(0.013036818 0.012508752 2.1899712e-20)
(0.024521237 0.0074744431 5.0567077e-21)
(0.037915533 0.0023489048 -2.5290296e-20)
(0.053157438 -0.002762783 1.1078279e-20)
(0.070186858 -0.0077908732 0)
(0.08894657 -0.012691301 1.2089576e-20)
(0.10938543 -0.017436917 -9.7016181e-21)
(0.1314574 -0.022009894 -1.433712e-20)
(0.15507405 -0.026408643 -1.5738957e-21)
(0.18006758 -0.030659417 -2.2181549e-21)
(0.20685339 -0.03457653 4.6147066e-20)
(0.23766357 -0.037019864 -1.0470126e-20)
(-0.0046450978 0.0097808622 -7.535668e-21)
(-0.0096772507 0.02074788 2.4516401e-20)
(-0.01106438 0.026160977 -1.0499347e-20)
(-0.0090968328 0.027724444 -2.7469283e-20)
(-0.0039797215 0.026601694 -2.7548148e-20)
(0.0040961815 0.023648408 -1.492157e-20)
(0.014954147 0.019496457 -6.905961e-22)
(0.028436232 0.014604706 5.5499787e-21)
(0.044403143 0.0093034473 1.961588e-20)
(0.062730491 0.0038284165 7.3530861e-21)
(0.083304309 -0.0016547538 -7.1862217e-21)
(0.10601897 -0.0070322369 -2.0102308e-21)
(0.13077356 -0.012229095 -3.8191713e-20)
(0.15746942 -0.01719975 -1.2693646e-20)
(0.18601198 -0.021919732 1.8750608e-20)
(0.21631176 -0.026379714 -2.1021675e-20)
(0.24823221 -0.030602219 -8.9730587e-21)
(0.28151865 -0.034670603 3.044047e-20)
(0.31660702 -0.038364815 5.0472069e-20)
(0.35665013 -0.039964094 3.3559656e-21)
(-0.0049617684 0.0093139986 1.6783304e-20)
(-0.0091662692 0.019097709 1.4467939e-20)
(-0.007859365 0.023563366 5.1145489e-20)
(-0.0018585401 0.024328943 2.3387982e-20)
(0.0082957218 0.022523783 1.8251775e-22)
(0.022221938 0.019014385 -3.9388457e-20)
(0.039597439 0.014440936 -2.4313862e-20)
(0.0601479 0.0092663603 1.0465818e-20)
(0.08363911 0.0038232293 1.4401588e-20)
(0.10986668 -0.0016512977 -1.3113712e-20)
(0.13864562 -0.0069910077 -4.4038719e-20)
(0.16980169 -0.012082845 2.9618502e-20)
(0.20316403 -0.016854156 2.0020553e-20)
(0.23855944 -0.021263992 -2.7551159e-20)
(0.27581229 -0.025296399 1.1650136e-20)
(0.31474809 -0.028957163 2.4197616e-20)
(0.35514544 -0.032303047 8.0723952e-21)
(0.39663385 -0.035506671 -1.1764211e-20)
(0.43957699 -0.038392635 -1.4190298e-20)
(0.48798508 -0.038634394 5.872757e-21)
(-0.0047307763 0.0081236733 1.1093845e-20)
(-0.0070586006 0.015671176 -2.3352719e-20)
(-0.0020293664 0.018562033 8.6200561e-21)
(0.0090325192 0.018216225 3.3587967e-20)
(0.02525636 0.01565115 5.2124342e-20)
(0.046066335 0.011695604 2.0276511e-20)
(0.070984519 0.0069609534 -5.8639365e-21)
(0.099601943 0.0018829528 -1.2286284e-20)
(0.13156894 -0.0032271962 -6.205748e-21)
(0.16657566 -0.008149655 3.4240838e-20)
(0.20433424 -0.012733317 -4.5104399e-21)
(0.24456483 -0.016879183 -1.6643303e-20)
(0.28698468 -0.020528681 -1.9693574e-20)
(0.33129996 -0.023656406 -4.7443744e-20)
(0.37720457 -0.026265526 2.3238706e-20)
(0.42438768 -0.028387853 -1.4095985e-20)
(0.47249971 -0.03012761 2.5993403e-20)
(0.52103615 -0.031783178 2.1040826e-20)
(0.57021392 -0.033350665 -8.5570386e-20)
(0.62470914 -0.032058825 -1.0807283e-22)
(-0.0037710521 0.0063146395 2.1925056e-20)
(-0.0028657667 0.010735096 -2.6165529e-20)
(0.0071421039 0.011564137 -4.5013297e-20)
(0.024450231 0.0099249905 -2.7253782e-20)
(0.047870848 0.0066523071 -2.0439869e-21)
(0.076628699 0.0024906187 1.3050094e-20)
(0.11007673 -0.0020153932 -2.8337688e-21)
(0.14765205 -0.0064879014 1.8118538e-20)
(0.18886095 -0.0106635 8.8685615e-21)
(0.23325194 -0.014362417 -1.1380173e-20)
(0.28039148 -0.017468944 8.8779156e-21)
(0.32984602 -0.019916799 -2.390327e-20)
(0.38116879 -0.02167869 8.0504808e-21)
(0.43389083 -0.022759866 1.6756393e-20)
(0.48751934 -0.02319429 -2.6395148e-21)
(0.54154714 -0.023046879 1.6618991e-21)
(0.59543543 -0.022469432 -3.1957813e-22)
(0.64851781 -0.021870089 1.9590425e-20)
(0.70082237 -0.021445045 4.043401e-21)
(0.75745148 -0.018499062 -5.7334762e-22)
(-0.0019110146 0.0040273483 2.3692112e-20)
(0.0038694294 0.0046765209 5.7159957e-20)
(0.020315309 0.0031879655 -4.9244226e-20)
(0.045178282 0.00029442773 -9.9454144e-21)
(0.076965148 -0.0034241497 2.0256344e-20)
(0.11469622 -0.0073535832 2.1433718e-21)
(0.15753882 -0.011054953 -2.9815162e-20)
(0.2047483 -0.014244135 6.98481e-21)
(0.25564949 -0.016737923 7.1097889e-21)
(0.30960472 -0.018426951 -2.625408e-20)
(0.36598646 -0.019260091 1.2927331e-21)
(0.42415957 -0.019231859 -3.7174116e-20)
(0.483471 -0.018372193 -3.634102e-20)
(0.54324563 -0.016738265 6.5683486e-20)
(0.6027881 -0.01440729 5.5627485e-21)
(0.66138883 -0.011475885 -1.5188793e-20)
(0.71830783 -0.0081020305 1.9363972e-20)
(0.77269899 -0.0045928497 -9.1888159e-22)
(0.82408833 -0.00096803057 2.0364581e-20)
(0.87621965 0.0043280882 -1.9554156e-20)
(-0.018836424 -0.0050997019 5.8352038e-20)
(-0.010224665 -0.0056349251 1.5783666e-20)
(-0.0002212077 -0.0060688777 -3.5139553e-20)
(0.010823209 -0.006334107 1.6790229e-20)
(0.022642445 -0.0065120441 0)
(0.035177859 -0.0066300868 0)
(0.048369631 -0.0066909699 -2.297494e-20)
(0.06213804 -0.0067025361 -1.6502866e-20)
(0.076412677 -0.0066741704 1.9122584e-20)
(0.091134032 -0.0066126616 1.8174026e-20)
(0.10624713 -0.0065232015 1.0524254e-21)
(0.12170017 -0.0064103537 -1.0317633e-20)
(0.13744485 -0.0062780767 8.3268739e-21)
(0.15343595 -0.0061297178 1.823371e-20)
(0.16963071 -0.0059681404 -5.2274128e-21)
(0.18598848 -0.0057958299 -1.0174931e-20)
(0.2024705 -0.0056149572 -4.3195858e-21)
(0.21903976 -0.0054274316 -4.4257377e-21)
(0.23566081 -0.0052349451 7.3667182e-22)
(0.25229981 -0.0050390079 1.2286033e-21)
(0.2689244 -0.0048409751 2.5666293e-21)
(0.2855038 -0.0046420666 6.653943e-21)
(0.30200883 -0.0044433813 2.4894487e-22)
(0.31841195 -0.0042459089 -3.4514683e-21)
(0.33468731 -0.0040505369 1.5558774e-22)
(0.35081085 -0.0038580568 -5.7709751e-22)
(0.36676031 -0.0036691687 1.2434356e-21)
(0.38251528 -0.0034844848 1.0522433e-21)
(0.39805724 -0.0033045337 -1.2987919e-21)
(0.41336956 -0.0031297636 -1.2218745e-22)
(0.42843753 -0.0029605463 3.5750566e-23)
(0.44324828 -0.002797182 -3.5187555e-22)
(0.45779081 -0.0026399037 -4.0565347e-22)
(0.47205595 -0.0024888826 5.5412635e-23)
(0.48603627 -0.0023442341 -1.3809016e-22)
(0.49972609 -0.0022060236 -2.2343138e-22)
(0.51312137 -0.0020742733 2.5571886e-22)
(0.52621979 -0.0019489688 2.9501924e-22)
(0.53902053 -0.0018300683 -8.2709414e-24)
(0.55152471 -0.0017175064 -1.5517327e-22)
(0.56373429 -0.0016112223 3.0406644e-23)
(0.57565587 -0.0015111153 -4.0144718e-23)
(0.58728962 -0.0014172567 9.2203258e-23)
(0.59866454 -0.00132931 2.1977403e-23)
(0.60973502 -0.0012485587 -1.1394426e-22)
(0.62069305 -0.0011717935 -6.7612789e-24)
(0.63106102 -0.0011112446 -7.2476086e-26)
(0.64234953 -0.0010339478 -3.5610546e-24)
(0.65042748 -0.0010508051 2.9453766e-23)
(0.66700834 -0.00087555902 3.6050645e-22)
(0.010445866 -0.015017608 -1.2746814e-20)
(0.018179694 -0.01664101 -6.3302329e-20)
(0.027779211 -0.017915412 -3.0541935e-20)
(0.03838514 -0.01867207 3.8476006e-20)
(0.049620981 -0.019183587 1.4662609e-20)
(0.061506622 -0.019529431 -1.8204925e-20)
(0.074012812 -0.019709864 4.6721988e-21)
(0.087062659 -0.01974649 2.5447186e-20)
(0.10059313 -0.019667279 9.1994706e-23)
(0.114554 -0.019491698 -7.6591226e-21)
(0.12889716 -0.019234357 -1.3021015e-20)
(0.14357599 -0.018908309 -8.5245273e-21)
(0.15854662 -0.01852497 1.777233e-20)
(0.17376752 -0.018093998 8.9295399e-21)
(0.18919895 -0.017623676 -1.6522435e-20)
(0.20480272 -0.017121229 -6.0390568e-21)
(0.2205421 -0.016592994 3.2145043e-21)
(0.2363817 -0.016044567 8.3716308e-21)
(0.25228748 -0.015480928 6.9832252e-21)
(0.26822668 -0.014906537 -6.9727136e-21)
(0.28416787 -0.01432541 -3.1685446e-21)
(0.30008104 -0.013741171 1.3605329e-21)
(0.31593759 -0.013157095 3.8682721e-22)
(0.33171046 -0.012576137 1.2113948e-21)
(0.34737421 -0.012000954 1.8368336e-22)
(0.36290504 -0.01143392 -3.26616e-22)
(0.37828088 -0.010877137 -7.2434824e-22)
(0.39348143 -0.010332449 9.7156501e-22)
(0.40848823 -0.0098014508 8.2482885e-22)
(0.42328462 -0.0092854975 -1.5147301e-22)
(0.43785577 -0.0087857179 5.530602e-22)
(0.45218867 -0.0083030266 -2.3880904e-22)
(0.46627213 -0.0078381381 -3.7069843e-22)
(0.4800967 -0.0073915828 -6.0999028e-22)
(0.49365465 -0.0069637237 4.4171705e-22)
(0.50693996 -0.0065547746 -1.5476716e-23)
(0.51994823 -0.0061648203 1.6124686e-22)
(0.53267671 -0.0057938357 -4.4174692e-22)
(0.54512415 -0.0054417141 3.718942e-22)
(0.55729123 -0.0051082771 6.7175167e-23)
(0.56917942 -0.00479336 -1.0285402e-22)
(0.58079481 -0.0044966789 1.761364e-22)
(0.59213715 -0.0042184626 2.3339567e-22)
(0.6032347 -0.0039577215 1.692641e-22)
(0.61404201 -0.003718301 1.6767111e-22)
(0.6247482 -0.0034906457 -2.6097863e-23)
(0.63488206 -0.0033112047 8.4043211e-23)
(0.64593122 -0.0030818622 7.6291058e-23)
(0.65382963 -0.0031323502 -1.9466432e-22)
(0.67009151 -0.0026124334 -3.8026537e-23)
(0.067614678 -0.024029143 9.4528291e-21)
(0.073589659 -0.026749046 3.2950984e-21)
(0.082265494 -0.028805565 -1.2162201e-20)
(0.091947806 -0.0299685 -1.2257913e-21)
(0.10198319 -0.03076786 1.4970586e-20)
(0.11254632 -0.031330887 -1.4887122e-20)
(0.12367595 -0.031636065 -2.9842265e-20)
(0.1352968 -0.031713 1.4493517e-20)
(0.14735693 -0.03160763 1.818196e-20)
(0.1598234 -0.03135005 -1.1598513e-20)
(0.17266057 -0.030961814 1.019055e-21)
(0.18583079 -0.030462747 8.6860147e-21)
(0.19929781 -0.029870545 -1.5253535e-20)
(0.21302654 -0.029200232 2.9095112e-21)
(0.2269824 -0.028464753 7.5194326e-21)
(0.24113137 -0.027675498 3.1599596e-23)
(0.25544012 -0.026842551 2.6556483e-22)
(0.26987603 -0.025974889 -7.4150829e-21)
(0.28440728 -0.025080557 3.8616802e-21)
(0.29900295 -0.024166812 8.4749015e-21)
(0.3136331 -0.023240226 -3.8351746e-21)
(0.32826888 -0.022306766 -2.2130359e-21)
(0.34288267 -0.021371848 1.0124438e-21)
(0.35744816 -0.020440379 -1.7155317e-21)
(0.37194045 -0.019516786 1.353225e-21)
(0.38633615 -0.018605039 7.1845897e-22)
(0.40061345 -0.017708667 1.5268375e-21)
(0.41475218 -0.016830776 -1.9526603e-21)
(0.42873386 -0.015974061 2.2235663e-21)
(0.44254171 -0.015140825 5.5188492e-22)
(0.45616068 -0.014332997 4.0322478e-22)
(0.46957743 -0.013552151 3.2134456e-22)
(0.48278034 -0.012799531 8.7324887e-22)
(0.49575946 -0.012076076 -1.3708587e-21)
(0.50850647 -0.011382447 3.7065505e-22)
(0.5210147 -0.010719057 1.0941234e-22)
(0.53327903 -0.010086106 -4.5172073e-23)
(0.54529594 -0.0094836104 8.673292e-23)
(0.55706338 -0.0089114489 -3.7184896e-22)
(0.56858116 -0.0083693818 1.8293451e-22)
(0.57984989 -0.0078571902 -3.4987083e-23)
(0.5908747 -0.0073744556 3.9004062e-22)
(0.60165452 -0.0069216073 -1.8544366e-22)
(0.61221624 -0.0064970568 4.7323358e-23)
(0.62251473 -0.0061071929 4.360335e-23)
(0.63273371 -0.005736328 -7.3599084e-23)
(0.64241411 -0.0054444024 -1.20824e-22)
(0.65299961 -0.0050704956 3.8808946e-22)
(0.66054964 -0.0051542402 1.7270483e-22)
(0.67619325 -0.0043070065 -8.3039675e-22)
(0.15021527 -0.031460424 1.5010123e-21)
(0.15354688 -0.03525739 -1.1566605e-20)
(0.16061621 -0.038010914 6.6441927e-21)
(0.16880588 -0.039479092 -1.3324741e-20)
(0.17698222 -0.040520683 -1.975831e-21)
(0.18552344 -0.041302274 9.1599358e-21)
(0.19458418 -0.04175723 -9.7662103e-21)
(0.20408689 -0.041913703 1.5662786e-21)
(0.21398766 -0.041833323 1.2903796e-20)
(0.22427596 -0.041554328 3.4031976e-21)
(0.23493251 -0.041102037 -6.2096943e-21)
(0.24593018 -0.040500441 -2.8638077e-21)
(0.25724156 -0.039771741 -5.8409056e-21)
(0.26883909 -0.038935047 -6.4553112e-21)
(0.2806942 -0.038006967 3.2356926e-21)
(0.2927776 -0.037002294 8.462116e-22)
(0.30505971 -0.035934317 1.3679571e-21)
(0.31751095 -0.034815014 -3.3850409e-21)
(0.33010192 -0.033655241 -4.2428839e-21)
(0.34280358 -0.032464888 2.3616498e-21)
(0.35558752 -0.031252989 3.225134e-21)
(0.36842609 -0.030027808 -1.5636184e-21)
(0.38129255 -0.028796894 1.586726e-21)
(0.39416128 -0.027567124 -3.9123951e-22)
(0.40700786 -0.026344736 -3.9196384e-21)
(0.41980918 -0.025135345 -3.0332804e-21)
(0.43254358 -0.023943969 -1.9026251e-22)
(0.44519084 -0.022775041 4.2858944e-22)
(0.45773231 -0.021632433 -2.2106024e-21)
(0.47015094 -0.020519469 -8.5497066e-22)
(0.48243122 -0.019438957 2.2837646e-22)
(0.49455929 -0.018393213 -1.2498672e-21)
(0.50652288 -0.01738409 6.2632348e-24)
(0.51831128 -0.016413018 -4.2420819e-22)
(0.52991534 -0.015481039 -4.7193587e-22)
(0.54132746 -0.014588851 -5.1995581e-22)
(0.55254153 -0.013736848 -8.4132944e-22)
(0.56355296 -0.012925171 -5.4496397e-23)
(0.5743586 -0.012153765 -3.9160409e-24)
(0.58495708 -0.011422409 -5.1972224e-22)
(0.59534782 -0.010730906 -9.1607186e-23)
(0.60553469 -0.010078779 -3.323928e-22)
(0.6155155 -0.0094667199 -4.3759784e-22)
(0.62531524 -0.0088926318 3.7841608e-22)
(0.6348893 -0.0083653989 1.4820931e-23)
(0.64441374 -0.0078635756 1.8237509e-22)
(0.65344699 -0.0074693337 -1.3246611e-22)
(0.66336957 -0.0069629445 -2.6690934e-22)
(0.67042164 -0.0070791438 -4.469263e-23)
(0.68517853 -0.0059326775 4.6229474e-22)
(0.25468563 -0.036552748 -2.0900302e-20)
(0.25447017 -0.041393498 4.758594e-20)
(0.25907329 -0.044745646 1.0348097e-20)
(0.26508408 -0.046442031 -1.5765323e-20)
(0.27070928 -0.047714302 -2.0227884e-21)
(0.27651989 -0.048747762 2.623229e-21)
(0.28283543 -0.049413704 -1.6608185e-21)
(0.28957684 -0.049728084 -4.6861402e-21)
(0.2966965 -0.049761415 -4.0159155e-21)
(0.30420539 -0.049557037 -1.2207636e-20)
(0.3121021 -0.049141671 1.7897748e-20)
(0.32036929 -0.048540786 6.5219872e-21)
(0.3289869 -0.047778949 -1.6780519e-20)
(0.33793393 -0.046878003 1.0317572e-20)
(0.34718698 -0.045857284 8.38499e-21)
(0.35672064 -0.044734297 -8.792378e-22)
(0.36650834 -0.043525051 -3.122223e-21)
(0.37652277 -0.042244232 -3.8197294e-21)
(0.38673629 -0.040905343 -1.3892569e-21)
(0.39712118 -0.039520836 -1.2304183e-21)
(0.40764996 -0.038102205 -3.0257587e-21)
(0.41829566 -0.036660053 0)
(0.429032 -0.035204138 -1.3451903e-21)
(0.43983359 -0.033743406 3.9309494e-21)
(0.4506761 -0.032286011 5.4052636e-21)
(0.46153634 -0.030839337 -9.4112532e-22)
(0.47239243 -0.029410011 -2.9274412e-21)
(0.48322383 -0.028003918 3.0258354e-21)
(0.49401142 -0.026626227 2.5447518e-22)
(0.50473756 -0.025281409 3.4352418e-21)
(0.51538607 -0.023973272 -5.3459721e-22)
(0.52594229 -0.022704989 1.7173451e-21)
(0.53639306 -0.021479144 -7.9964256e-22)
(0.5467267 -0.020297772 2.9094053e-22)
(0.55693301 -0.019162409 -4.3403843e-22)
(0.56700323 -0.018074144 5.6231555e-22)
(0.57693006 -0.017033679 4.5709768e-22)
(0.58670764 -0.016041381 3.8255494e-22)
(0.59633149 -0.015097367 -9.5935944e-22)
(0.60579889 -0.014201533 6.8355231e-22)
(0.61510788 -0.0133538 -3.6957248e-22)
(0.6242608 -0.012553728 -1.1033145e-21)
(0.63325422 -0.011802348 1.4078111e-21)
(0.64211087 -0.011097167 -6.200558e-23)
(0.65078692 -0.010449489 -1.58159e-22)
(0.65944886 -0.0098326141 -7.8244073e-24)
(0.66767736 -0.0093492286 -1.2621457e-22)
(0.67677319 -0.0087261874 -4.6582123e-22)
(0.68320504 -0.0088736248 8.7882915e-22)
(0.69685045 -0.00746488 -4.4315589e-23)
(0.37635125 -0.038368154 -1.7495095e-20)
(0.37170973 -0.044270216 1.2832047e-20)
(0.37286685 -0.048161598 2.97545e-21)
(0.37591041 -0.050098836 -7.6353765e-21)
(0.37830521 -0.051669956 1.2055982e-20)
(0.38072288 -0.053042356 7.7914085e-21)
(0.38367595 -0.054030022 -1.2647684e-20)
(0.38710052 -0.054633085 -6.0679749e-21)
(0.39092917 -0.054917985 1.2697338e-20)
(0.39518236 -0.054927114 -1.5304967e-20)
(0.39987418 -0.054687495 -1.4063187e-20)
(0.404995 -0.054224632 1.4129629e-20)
(0.41052854 -0.053563639 6.8193818e-21)
(0.4164571 -0.052727927 -4.2037643e-21)
(0.42276006 -0.051738995 -1.854561e-21)
(0.42941395 -0.050616727 -4.0581713e-21)
(0.43639339 -0.049379679 5.3047593e-21)
(0.44367187 -0.048045205 3.6682081e-21)
(0.45122215 -0.046629526 -3.240829e-21)
(0.45901669 -0.045147792 3.1379481e-21)
(0.46702797 -0.043614136 2.7666792e-21)
(0.4752288 -0.042041703 -3.2111121e-21)
(0.48359257 -0.040442678 3.7056555e-22)
(0.49209344 -0.038828293 -3.2571637e-21)
(0.50070652 -0.037208841 7.2454111e-21)
(0.50940801 -0.035593682 6.1080574e-21)
(0.51817531 -0.033991255 8.097311e-22)
(0.5269871 -0.032409097 -1.7683224e-21)
(0.53582341 -0.030853858 3.7021747e-21)
(0.54466566 -0.029331331 7.1885148e-21)
(0.5534967 -0.027846491 2.3049298e-21)
(0.56230081 -0.026403531 3.3164841e-21)
(0.57106369 -0.025005912 1.9956195e-21)
(0.57977248 -0.023656421 7.4557868e-22)
(0.58841574 -0.022357226 -2.6374541e-22)
(0.59698342 -0.021109941 2.7203095e-21)
(0.60546688 -0.019915699 6.1992117e-22)
(0.61385888 -0.018775218 2.9487738e-22)
(0.62215351 -0.017688902 5.6232417e-23)
(0.63034659 -0.016656876 9.8966377e-22)
(0.6384347 -0.015679287 4.7020029e-23)
(0.64641859 -0.014755832 4.4247343e-22)
(0.65429354 -0.013887966 -1.2621771e-22)
(0.6620798 -0.013072921 -2.7734754e-22)
(0.66973465 -0.012324325 -1.5218586e-22)
(0.67741353 -0.011610809 -4.2207741e-22)
(0.68472333 -0.011053509 1.613921e-22)
(0.69287153 -0.010332301 -1.2723554e-22)
(0.69859436 -0.0105094 -5.012639e-22)
(0.71095673 -0.0088817295 2.458689e-22)
(0.50927425 -0.035974262 3.6471443e-21)
(0.49953033 -0.042960642 -1.895831e-20)
(0.49627549 -0.047383439 -2.3083836e-21)
(0.49555585 -0.049736742 5.486954e-21)
(0.49416945 -0.051818005 3.0528101e-21)
(0.49269565 -0.053705369 -4.9882076e-23)
(0.4918122 -0.055187606 6.1896656e-21)
(0.49151441 -0.056265354 7.6250997e-21)
(0.49171156 -0.056990486 9.8580405e-21)
(0.49241061 -0.057395526 -1.1250038e-20)
(0.49363093 -0.057506251 -2.1579415e-20)
(0.49536766 -0.057348365 -3.9353458e-21)
(0.49760456 -0.056947077 1.5938138e-20)
(0.5003229 -0.056326954 1.2808954e-20)
(0.50350153 -0.055511676 -5.906694e-21)
(0.50711639 -0.054523788 1.381705e-21)
(0.51114126 -0.053384724 -3.6600823e-21)
(0.51554861 -0.052114877 2.2443737e-21)
(0.52031014 -0.050733583 -2.9123014e-22)
(0.5253972 -0.049259099 -1.865409e-21)
(0.5307811 -0.047708594 7.8265858e-21)
(0.53643349 -0.046098142 -2.9308762e-22)
(0.54232655 -0.04444272 4.1818096e-22)
(0.54843323 -0.042756192 -6.5646647e-22)
(0.55472744 -0.041051311 -4.3029364e-21)
(0.56118413 -0.039339715 4.208514e-21)
(0.56777948 -0.037631934 1.9031212e-21)
(0.5744909 -0.035937409 -3.3081903e-21)
(0.58129716 -0.034264512 -4.1116417e-21)