/*--------------------------------*- C++ -*----------------------------------*\
  =========                 |
  \\      /  F ield         | OpenFOAM: The Open Source CFD Toolbox
   \\    /   O peration     | Website:  https://openfoam.org
    \\  /    A nd           | Version:  6
     \\/     M anipulation  |
\*---------------------------------------------------------------------------*/
FoamFile
{
    version     2.0;
    format      ascii;
    class       volVectorField;
    location    "223";
    object      UMean;
}
// * * * * * * * * * * * * * * * * * * * * * * * * * * * * * * * * * * * * * //

dimensions      [0 1 -1 0 0 0 0];

internalField   nonuniform List<vector> 
9200
(
(0.0016577709 0.00094687516 -6.0833781e-20)
(0.01573204 -0.0035491623 4.8195351e-20)
(0.04193712 -0.0082289952 -3.9792926e-20)
(0.077559342 -0.012879908 -6.298796e-20)
(0.12071879 -0.017280275 1.9564948e-20)
(0.170161 -0.020995737 3.423649e-20)
(0.22479031 -0.023739309 -1.2805966e-20)
(0.28359459 -0.025368658 9.6869853e-21)
(0.34562781 -0.025828148 1.7820377e-20)
(0.40997855 -0.025125544 1.5750534e-21)
(0.47574682 -0.023320731 -2.2813233e-20)
(0.54203559 -0.020514699 2.1926561e-20)
(0.60795414 -0.016838582 -4.2796826e-20)
(0.67263122 -0.012442518 -2.2485274e-20)
(0.73523629 -0.0074838559 6.2832166e-21)
(0.79500606 -0.0021174564 -2.6804804e-20)
(0.85128952 0.0035273067 2.6933272e-20)
(0.9036699 0.0094928418 2.3888973e-20)
(0.95178293 0.015908121 -2.6276418e-22)
(0.99298114 0.019448259 -1.5978695e-21)
(0.006051639 -0.0018787327 -1.7525884e-20)
(0.029501274 -0.010600069 4.142504e-20)
(0.066021647 -0.017306248 2.4159503e-20)
(0.11249046 -0.022408425 -1.2029555e-19)
(0.16672264 -0.026091466 -1.3171496e-20)
(0.22720463 -0.028154646 7.6617329e-20)
(0.29257331 -0.0285132 -3.7078704e-20)
(0.36153732 -0.027212672 -8.8309576e-21)
(0.43286617 -0.024368924 3.6131772e-20)
(0.50536734 -0.020149048 -4.5680571e-20)
(0.57787583 -0.01476354 -3.2206022e-20)
(0.64926172 -0.0084558509 7.6455477e-20)
(0.71845087 -0.0014905494 4.0622582e-20)
(0.78445406 0.0058583637 -7.2226006e-20)
(0.8464003 0.013317424 1.5537756e-20)
(0.90356876 0.020618369 -3.903438e-20)
(0.95542808 0.027511974 -1.4780091e-20)
(1.0017337 0.033840617 7.5351912e-20)
(1.0423963 0.039198287 3.219578e-20)
(1.0756812 0.040490064 -8.5115217e-20)
(0.011853017 -0.0046111282 3.7458058e-20)
(0.046997242 -0.017096508 2.3363141e-21)
(0.095606621 -0.025082904 2.2681892e-20)
(0.15420425 -0.029727103 1.0161657e-21)
(0.2203103 -0.031705626 -4.1844063e-20)
(0.29212763 -0.03111567 1.9519375e-20)
(0.3679919 -0.028135083 1.3784264e-20)
(0.44630154 -0.023054977 -5.2650393e-20)
(0.5255235 -0.016215517 6.0159295e-20)
(0.6041899 -0.0079885234 1.5269578e-20)
(0.68090912 0.0012301746 -5.7521585e-20)
(0.75439473 0.01103438 -1.9431074e-20)
(0.82350356 0.021024011 9.3144046e-21)
(0.88727516 0.03082127 2.4817246e-20)
(0.94496577 0.040084423 -1.2000042e-20)
(0.99607005 0.048516564 2.9440107e-20)
(1.0403324 0.05587942 -2.1401155e-20)
(1.0777754 0.062040208 -7.3667252e-20)
(1.1085755 0.066735686 -2.4331036e-20)
(1.1319238 0.068104021 5.0564983e-20)
(0.019155913 -0.0070008727 2.4842024e-20)
(0.068332077 -0.022342508 5.2295475e-20)
(0.13066945 -0.030519876 2.0474742e-20)
(0.2024124 -0.03355871 1.3681575e-20)
(0.28080534 -0.032713838 1.8102799e-20)
(0.3637519 -0.028449553 -4.9697209e-20)
(0.44927167 -0.02127008 -2.682415e-20)
(0.53545487 -0.011768726 0)
(0.62049696 -0.00055520145 1.53723e-20)
(0.70272426 0.01176425 -6.6275775e-21)
(0.78063118 0.024598141 -1.030656e-19)
(0.85292826 0.037389274 -1.6445709e-20)
(0.91858875 0.049636555 6.8705892e-20)
(0.97688399 0.060914076 4.7746074e-22)
(1.0274009 0.070884904 -1.6525446e-21)
(1.0700368 0.079307563 2.3024346e-20)
(1.1049751 0.086042334 -5.3875554e-21)
(1.1326583 0.091079431 -6.3925388e-20)
(1.1536699 0.09439811 -4.8006837e-20)
(1.1680113 0.095052184 7.137591e-20)
(0.027984417 -0.0087656444 -3.8448196e-21)
(0.093397102 -0.025587812 -4.8311167e-21)
(0.17080719 -0.032545404 5.7961144e-20)
(0.25628892 -0.032644254 1.9345902e-20)
(0.34685183 -0.02779936 -3.3431491e-20)
(0.44011122 -0.01891123 1.2396775e-20)
(0.53379602 -0.006869574 2.7583451e-21)
(0.62574622 0.0073863173 3.5432315e-20)
(0.71398546 0.022954262 5.9454115e-21)
(0.79677869 0.038995604 -1.4109132e-20)
(0.87269038 0.054752054 6.3626033e-20)
(0.94063813 0.069569872 -6.0733293e-20)
(0.99992817 0.082922355 -1.3861868e-19)
(1.0502645 0.094424182 -5.8406196e-21)
(1.0917287 0.10383546 8.6827654e-20)
(1.124733 0.1110549 0)
(1.1499522 0.11610855 1.0669958e-20)
(1.1682534 0.11915245 -1.5996314e-20)
(1.1805813 0.120371 -9.0734265e-21)
(1.1875112 0.11937564 2.1550555e-20)
(0.038272615 -0.0096007576 -5.1530097e-21)
(0.12183237 -0.026070877 4.4421864e-21)
(0.21522778 -0.030139805 -8.9689687e-21)
(0.31451043 -0.025874635 2.8998009e-20)
(0.41653162 -0.015915333 -3.0569607e-20)
(0.51867437 -0.0016558025 -1.7592788e-20)
(0.61846154 0.015589311 3.8125769e-20)
(0.71361052 0.034521278 4.7674768e-21)
(0.80214493 0.05396255 -2.6037134e-20)
(0.88247649 0.072890696 7.307888e-20)
(0.9534669 0.090457576 2.9831002e-22)
(1.0144634 0.10601059 -8.4215464e-20)
(1.0652982 0.11910488 0)
(1.1062488 0.12950059 4.1119005e-20)
(1.1379666 0.13714522 5.6945744e-21)
(1.1613816 0.14214381 -8.0340508e-20)
(1.177598 0.14472472 -2.0307269e-20)
(1.1877979 0.1452172 -1.2837843e-20)
(1.1931352 0.14396384 -1.5206125e-20)
(1.1944667 0.14090794 4.1673147e-20)
(0.049851582 -0.0092001008 -1.7305153e-20)
(0.1530108 -0.023077927 -3.0587519e-21)
(0.26275968 -0.022425412 3.0658847e-20)
(0.37531591 -0.01240179 3.7647075e-20)
(0.4874953 0.0035975371 -2.0457535e-20)
(0.59656284 0.023657486 -7.1802739e-20)
(0.69998738 0.046037504 -2.9389114e-20)
(0.79555897 0.069114121 8.2135665e-20)
(0.88152884 0.091504823 9.2238355e-21)
(0.95669536 0.11210416 -2.5779045e-20)
(1.0204431 0.13009485 1.4035695e-20)
(1.0727331 0.14495199 -4.526155e-21)
(1.1140437 0.15642994 0)
(1.1452713 0.16452927 2.8217631e-20)
(1.1676053 0.1694485 -8.2095033e-20)
(1.1823974 0.1715275 -3.2558227e-20)
(1.1910385 0.17119245 8.3596092e-20)
(1.1948617 0.16891643 -4.6619227e-21)
(1.1950623 0.16514193 3.597898e-21)
(1.1925491 0.15999723 2.8058056e-20)
(0.062443408 -0.0072839598 -3.2550781e-20)
(0.18604429 -0.016014775 -8.3253341e-20)
(0.31189713 -0.0087640968 1.7962168e-21)
(0.43661021 0.0082579946 7.2273915e-20)
(0.55713583 0.030923876 6.4305999e-20)
(0.67079656 0.056817508 -7.3318035e-20)
(0.77522092 0.083826532 1.6140512e-22)
(0.86851534 0.11009653 8.9120653e-20)
(0.94940902 0.13416586 5.0663097e-20)
(1.0173151 0.15499063 -5.6385113e-20)
(1.0723182 0.17193082 -9.5800669e-20)
(1.1150977 0.18471983 -3.2728698e-21)
(1.1468008 0.19341149 4.3584194e-20)
(1.1688856 0.19830812 -6.7669433e-21)
(1.1829608 0.19987992 -1.3142629e-20)
(1.1906408 0.19868635 2.0064049e-20)
(1.1934316 0.19531 4.5123455e-20)
(1.1926572 0.19031253 -4.492645e-20)
(1.1894188 0.18417409 -1.0506824e-19)
(1.184535 0.17711317 2.5412968e-20)
(0.075631717 -0.0036296736 -3.5657763e-20)
(0.21974531 -0.0044825675 -1.7532295e-19)
(0.36077598 0.011160451 8.4872094e-20)
(0.49596859 0.036163556 9.5436146e-20)
(0.62263078 0.065755944 5.9465376e-20)
(0.738373 0.097101931 8.9120972e-21)
(0.84123831 0.12783522 -1.0957231e-19)
(0.92990687 0.15602352 0)
(1.0038145 0.18029724 -7.1439963e-20)
(1.0631598 0.19984312 -1.5793868e-20)
(1.1088187 0.21434533 5.6535081e-20)
(1.1421937 0.22390425 1.1294479e-20)
(1.1650251 0.22893514 -4.696377e-20)
(1.1791985 0.23005725 -5.0402393e-20)
(1.1865733 0.22798847 2.5071204e-20)
(1.1888536 0.22345702 4.6178195e-20)
(1.1875061 0.21713806 -5.7142138e-20)
(1.183726 0.20961821 -1.1021179e-19)
(1.1784414 0.20136083 -3.0861028e-21)
(1.1723138 0.19261837 2.7650652e-20)
(0.088845101 0.0019133161 -3.9022327e-21)
(0.25263159 0.011708411 8.9498882e-20)
(0.40721163 0.037347393 -1.4891218e-20)
(0.55072399 0.070974177 -8.7312508e-20)
(0.68108065 0.10734077 4.6524726e-20)
(0.79643786 0.1433473 5.0068384e-20)
(0.89551091 0.17656064 5.7214287e-21)
(0.97777995 0.20517692 -1.0259012e-19)
(1.0435515 0.22811812 -2.5860268e-21)
(1.0938899 0.24497106 5.2119265e-20)
(1.1304534 0.25586585 6.161805e-21)
(1.1552779 0.26133568 -2.0362308e-20)
(1.1705501 0.26216891 -7.7806928e-20)
(1.1784076 0.25926989 -6.3522261e-21)
(1.1807875 0.25354437 4.4601774e-20)
(1.179335 0.245818 3.7883874e-20)
(1.1753678 0.23678951 2.0142708e-20)
(1.1698873 0.22701353 -5.4501072e-20)
(1.1636217 0.21689819 1.2904158e-20)
(1.1570621 0.20670099 8.4285452e-20)
(-0.0013237899 0.0014526468 -8.7707318e-22)
(-0.0047613128 0.0031916479 1.8977644e-21)
(-0.01079426 0.0041024132 1.717466e-21)
(-0.017676071 0.0044566736 -1.2533443e-21)
(-0.024477552 0.0044260464 -2.2412309e-21)
(-0.030770214 0.0041267488 2.3731393e-21)
(-0.036281099 0.003643472 -8.196988e-21)
(-0.04083498 0.003037454 -7.0753895e-21)
(-0.044336646 0.0023522568 1.2772927e-20)
(-0.046744991 0.001618602 -1.0989854e-20)
(-0.048052827 0.00085790605 -2.0281802e-22)
(-0.048274059 8.48483e-05 4.1009067e-21)
(-0.047435206 -0.0006906882 -6.7295345e-22)
(-0.045569615 -0.0014620779 2.4983325e-20)
(-0.04271384 -0.0022245664 2.7632681e-22)
(-0.038907128 -0.002973798 -4.4406891e-20)
(-0.034193829 -0.0037051942 8.2507578e-21)
(-0.02861513 -0.0044166984 2.5660273e-20)
(-0.02218143 -0.0051068349 -4.7029308e-20)
(-0.01495529 -0.0057265429 -2.9652047e-20)
(-0.0016825594 0.0042289097 -5.6604252e-21)
(-0.0053942477 0.0092688365 9.847095e-21)
(-0.011185363 0.011893026 -1.0476086e-20)
(-0.017477158 0.012891418 5.5005828e-21)
(-0.0234395 0.012765007 6.5342834e-21)
(-0.028695139 0.011854847 8.9666171e-22)
(-0.033006881 0.010409603 -2.7018503e-20)
(-0.036225438 0.0086089984 -2.290667e-21)
(-0.038273127 0.0065808679 2.2877238e-20)
(-0.039120215 0.0044153417 -5.6671662e-21)
(-0.038766595 0.002175212 -2.4245574e-20)
(-0.037230206 -9.6532217e-05 5.4074144e-21)
(-0.034539422 -0.0023710258 2.4642395e-20)
(-0.030727731 -0.0046290139 1.1252322e-20)
(-0.025829959 -0.0068567734 2.3899346e-20)
(-0.019882741 -0.0090419705 -2.1391827e-20)
(-0.012934369 -0.011171778 -2.3286171e-20)
(-0.0050364449 -0.013239632 2.2954881e-20)
(0.0038734319 -0.015230873 2.8575921e-20)
(0.013986421 -0.016977083 1.6644269e-20)
(-0.0023304913 0.0066216702 -4.5971701e-21)
(-0.0064939474 0.014444385 -4.910135e-21)
(-0.011744154 0.018477573 7.6349921e-23)
(-0.016826636 0.019950102 -1.7316422e-23)
(-0.021101361 0.019647499 7.4798005e-21)
(-0.024289818 0.018110827 1.178084e-20)
(-0.02622423 0.01573543 -4.3490249e-21)
(-0.026805752 0.01280719 -2.1175237e-20)
(-0.025990991 0.009529738 7.3423664e-21)
(-0.023772838 0.0060468475 1.4331245e-20)
(-0.020165773 0.0024587679 6.6049192e-21)
(-0.015196777 -0.0011658868 1.976096e-20)
(-0.0088993721 -0.0047812424 1.8882673e-21)
(-0.0013093017 -0.0083571508 -3.6566829e-20)
(0.0075392439 -0.011872524 1.5236466e-21)
(0.017612095 -0.015308802 -2.3402346e-20)
(0.028852124 -0.018648607 -2.6593077e-20)
(0.04118408 -0.021883247 4.9378517e-20)
(0.054791856 -0.02495942 2.7344125e-20)
(0.070362418 -0.027511818 4.5554924e-22)
(-0.0031449167 0.0084198829 -5.7063205e-21)
(-0.0077776811 0.018217155 -1.1016924e-20)
(-0.012112584 0.023182909 4.4735036e-21)
(-0.01533915 0.024865066 4.6412129e-21)
(-0.017079834 0.024264556 2.1082982e-21)
(-0.017194514 0.022083666 8.572977e-21)
(-0.015614098 0.018837173 1.0640028e-20)
(-0.01231246 0.014897576 -1.5901349e-21)
(-0.0072967893 0.010530795 -1.2785214e-20)
(-0.00059470568 0.0059250368 -3.212135e-20)
(0.0077553788 0.0012117312 1.5549616e-22)
(0.017709354 -0.0035191105 4.4359226e-20)
(0.029221767 -0.0082077775 -1.9692938e-20)
(0.042247379 -0.012815449 -1.3285009e-20)
(0.056745269 -0.017316138 3.1802722e-22)
(0.072677124 -0.021689049 3.479655e-20)
(0.089971077 -0.025919647 -1.6346978e-20)
(0.10851013 -0.030006843 -5.6773808e-20)
(0.12860563 -0.033833971 4.8318476e-20)
(0.15165176 -0.036718424 3.5034602e-20)
(-0.0039617043 0.009479586 -4.7690875e-22)
(-0.0088588925 0.02023299 -1.3230883e-20)
(-0.01179052 0.025523807 -3.8078012e-20)
(-0.012465108 0.027077581 -6.9190439e-21)
(-0.010816645 0.026026947 -3.3841647e-21)
(-0.0068729093 0.023187271 7.1525833e-21)
(-0.00068700242 0.019158459 -5.3965504e-21)
(0.0076750945 0.014374617 -9.8915023e-21)
(0.018139841 0.0091462997 2.4060212e-20)
(0.030631247 0.0036937125 5.4177165e-21)
(0.045075019 -0.0018289044 -2.7878283e-20)
(0.061398466 -0.0073157809 1.1865958e-20)
(0.079530929 -0.012696798 0)
(0.099404302 -0.017927638 1.3002052e-20)
(0.12095609 -0.02298097 -1.0401495e-20)
(0.1441286 -0.027838926 -1.5469826e-20)
(0.16882199 -0.032500075 -1.0615152e-21)
(0.19485535 -0.03699168 -2.5859958e-21)
(0.22262714 -0.041131561 4.807686e-20)
(0.25438712 -0.043778825 -1.1817735e-20)
(-0.0045932702 0.0097332384 -7.7863532e-21)
(-0.0092812253 0.020310533 2.6438896e-20)
(-0.010168647 0.025243309 -1.1763781e-20)
(-0.0075147266 0.026290873 -2.983605e-20)
(-0.0015906262 0.024629136 -2.9309011e-20)
(0.0073888372 0.021134242 -1.6313991e-20)
(0.019230922 0.016452561 -8.8825029e-22)
(0.033761031 0.011050614 6.0966245e-21)
(0.050824277 0.0052628523 2.1258781e-20)
(0.07028176 -0.00067267613 7.9638803e-21)
(0.092005503 -0.0065891264 -7.7003116e-21)
(0.11587586 -0.012372085 -1.9606897e-21)
(0.14177771 -0.017946283 -4.1089175e-20)
(0.16959782 -0.023265846 -1.3602814e-20)
(0.19922654 -0.028306003 2.0420278e-20)
(0.23055902 -0.033057165 -2.2678096e-20)
(0.26344421 -0.037541597 -9.5610135e-21)
(0.29761234 -0.041843594 3.1815293e-20)
(0.33347492 -0.045750822 5.2791411e-20)
(0.37418785 -0.047552694 3.6121986e-21)
(-0.0048445256 0.0091862909 1.7286901e-20)
(-0.0085513959 0.01844354 1.4945615e-20)
(-0.006564167 0.022327838 5.4307473e-20)
(0.00030980654 0.022499737 2.5301431e-20)
(0.011456216 0.020092707 1.9960607e-22)
(0.026463114 0.015990755 -4.2797442e-20)
(0.044985896 0.010846598 -2.6176505e-20)
(0.066728472 0.0051292773 1.1294371e-20)
(0.09143636 -0.00082560228 1.5513058e-20)
(0.11888633 -0.006779344 -1.3962488e-20)
(0.14887509 -0.012565145 -4.7445368e-20)
(0.18121023 -0.018069881 3.1875031e-20)
(0.2157027 -0.023221009 2.1263138e-20)
(0.25216103 -0.027977652 -2.9456414e-20)
(0.29039123 -0.032323813 1.2543649e-20)
(0.33020065 -0.036265081 2.5699213e-20)
(0.37135152 -0.039857452 8.6782591e-21)
(0.41345868 -0.043273331 -1.283475e-20)
(0.45685777 -0.046348398 -1.4511799e-20)
(0.50553837 -0.046783577 7.3487744e-21)
(-0.0045238039 0.0079051724 1.1617602e-20)
(-0.0061661676 0.014783747 -2.517928e-20)
(-0.00025638356 0.016996549 8.4961347e-21)
(0.011874121 0.015990146 3.591053e-20)
(0.029275183 0.012776059 5.5211814e-20)
(0.051334504 0.0081961305 2.1660238e-20)
(0.07754607 0.0028709467 -6.2455223e-21)
(0.10747371 -0.0027601283 -1.3132957e-20)
(0.14074249 -0.0083846913 -6.6953484e-21)
(0.17701892 -0.013782799 3.669178e-20)
(0.21599228 -0.01880395 -4.999304e-21)
(0.25736045 -0.023350141 -1.7930984e-20)
(0.30081896 -0.027363906 -2.0916764e-20)
(0.34605307 -0.030820845 -5.0671395e-20)
(0.39273681 -0.033724904 2.4649751e-20)
(0.44054098 -0.036108252 -1.4954395e-20)
(0.48910096 -0.038074003 2.7709948e-20)
(0.53790182 -0.039917887 2.2396529e-20)
(0.58713592 -0.041646486 -8.8995071e-20)
(0.64143361 -0.040534277 2.6944863e-22)
(-0.0034499412 0.0060032443 2.2712785e-20)
(-0.0016381186 0.0096180939 -2.7751895e-20)
(0.0094672336 0.0096837046 -4.7160103e-20)
(0.028043449 0.007332147 -2.878437e-20)
(0.052819787 0.0033815454 -2.1702946e-21)
(0.0829789 -0.0014162128 1.3948071e-20)
(0.11783977 -0.0065115247 -3.0265849e-21)
(0.15680688 -0.011526338 1.9255488e-20)
(0.19935618 -0.01619866 9.4128512e-21)
(0.2450079 -0.020350747 -1.2120397e-20)
(0.29330168 -0.023869357 9.605998e-21)
(0.34377865 -0.026690898 -2.5504149e-20)
(0.39596868 -0.028790776 8.8508493e-21)
(0.44938202 -0.030176767 1.7885717e-20)
(0.50350831 -0.030885021 -2.9791423e-21)
(0.55782675 -0.030981958 1.8839581e-21)
(0.61179053 -0.030618578 -5.5573899e-22)
(0.66473275 -0.030197866 2.094774e-20)
(0.71666896 -0.029920958 3.993413e-21)
(0.77263426 -0.027143393 -2.0138648e-21)
(-0.0014530249 0.0036294428 2.4754632e-20)
(0.0054846166 0.0033542015 6.0244088e-20)
(0.023257294 0.0010362928 -5.1334074e-20)
(0.049586298 -0.0026012193 -1.0469614e-20)
(0.08289387 -0.0070056691 2.1399289e-20)
(0.12215338 -0.011562023 2.259317e-21)
(0.16649273 -0.015831655 -3.1470651e-20)
(0.21512964 -0.019534382 7.3983488e-21)
(0.26735419 -0.02249176 7.5170819e-21)
(0.32249685 -0.024599252 -2.7863234e-20)
(0.37990104 -0.025810618 1.3691638e-21)
(0.43890592 -0.026125193 -3.9598268e-20)
(0.49883701 -0.025577496 -3.873304e-20)
(0.55900306 -0.024228907 7.0029066e-20)
(0.61869891 -0.022160352 5.9259978e-21)
(0.67721245 -0.019471371 -1.6144617e-20)
(0.73380978 -0.016320789 2.0528819e-20)
(0.78766183 -0.013012775 -9.6355113e-22)
(0.8383102 -0.0095712976 2.0924417e-20)
(0.8894472 -0.0044742491 -2.1235644e-20)
(-0.0063598778 -0.0060106972 6.2314108e-20)
(0.0037256826 -0.0065315136 1.6530678e-20)
(0.015233751 -0.0069483253 -3.6837647e-20)
(0.02780825 -0.0071906125 1.7767014e-20)
(0.041171474 -0.0073420704 0)
(0.055257326 -0.0074317851 0)
(0.070001843 -0.0074627214 -2.3791133e-20)
(0.085320436 -0.007442903 -1.6965554e-20)
(0.10113736 -0.0073821484 1.9769164e-20)
(0.11738832 -0.0072876427 1.8650508e-20)
(0.1340141 -0.0071648729 1.0407266e-21)
(0.15095893 -0.0070186666 -1.0413685e-20)
(0.16817085 -0.0068532338 8.5619901e-21)
(0.18560132 -0.0066721455 1.8256512e-20)
(0.20320466 -0.0064784589 -5.3989908e-21)
(0.22093768 -0.0062748272 -1.0083925e-20)
(0.23875943 -0.0060635654 -4.2580372e-21)
(0.25663106 -0.0058467028 -4.2777457e-21)
(0.27451569 -0.0056260295 6.9665874e-22)
(0.29237835 -0.0054031328 1.2122062e-21)
(0.31018594 -0.0051794251 2.5786887e-21)
(0.32790725 -0.0049561655 6.4851719e-21)
(0.34551298 -0.0047344759 1.4452878e-22)
(0.36297574 -0.0045153529 -3.3488179e-21)
(0.38027015 -0.0042996778 1.2959443e-22)
(0.39737282 -0.0040882236 -5.5511529e-22)
(0.4142624 -0.0038816611 1.1908453e-21)
(0.43091959 -0.0036805644 9.7065311e-22)
(0.44732714 -0.0034854162 -1.2912381e-21)
(0.46346983 -0.0032966128 -1.0040606e-22)
(0.47933446 -0.0031144695 -4.1974295e-23)
(0.49490979 -0.0029392265 -3.2941337e-22)
(0.51018649 -0.0027710547 -4.101433e-22)
(0.5251571 -0.0026100622 9.0245977e-23)
(0.53981595 -0.002456301 -1.2737542e-22)
(0.55415907 -0.0023097741 -1.9732257e-22)
(0.56818419 -0.0021704425 2.2450934e-22)
(0.58189064 -0.0020382329 2.5434448e-22)
(0.59527929 -0.0019130474 -3.2487141e-23)
(0.60835289 -0.0017947672 -1.6339327e-22)
(0.6211149 -0.0016832824 1.6016952e-23)
(0.63357358 -0.001578447 -2.497294e-23)
(0.64573007 -0.0014802937 7.9755743e-23)
(0.65761641 -0.0013884517 -1.5972524e-23)
(0.66918377 -0.0013041785 -1.3403416e-22)
(0.68063933 -0.0012242852 5.8818868e-24)
(0.69146874 -0.0011608335 6.2453458e-24)
(0.70329247 -0.0010816403 -5.2742517e-24)
(0.71168596 -0.0010946574 2.5893905e-23)
(0.72912587 -0.00092411729 3.7168349e-22)
(0.023805377 -0.017693628 -1.3954652e-20)
(0.032921418 -0.019274248 -6.6828065e-20)
(0.04393988 -0.020499056 -3.2551157e-20)
(0.055994201 -0.021189554 4.0530691e-20)
(0.068691066 -0.02162451 1.5385209e-20)
(0.082044665 -0.021888321 -1.9252987e-20)
(0.096023303 -0.0219819 5.1767998e-21)
(0.1105454 -0.021927344 2.621253e-20)
(0.12554265 -0.021753884 -1.7450544e-22)
(0.14096035 -0.021482153 -7.9626018e-21)
(0.15674644 -0.02112763 -1.2909828e-20)
(0.17285049 -0.020704146 -8.8605757e-21)
(0.18922509 -0.020223858 1.7920782e-20)
(0.20582553 -0.019697089 9.571032e-21)
(0.2226092 -0.0191327 -1.6229965e-20)
(0.2395354 -0.018538413 -6.0082025e-21)
(0.25656523 -0.017920998 3.1090757e-21)
(0.27366148 -0.017286413 8.1364041e-21)
(0.29078861 -0.016639933 6.9315036e-21)
(0.30791269 -0.015986253 -7.0647712e-21)
(0.3250015 -0.015329564 -3.3678094e-21)
(0.34202448 -0.014673614 1.5592104e-21)
(0.35895283 -0.014021751 6.5003889e-22)
(0.37575956 -0.013376959 1.2422901e-21)
(0.39241955 -0.01274188 2.3587508e-22)
(0.40890955 -0.012118839 -3.7105005e-22)
(0.4252083 -0.011509858 -7.4667224e-22)
(0.44129647 -0.01091667 1.0650658e-21)
(0.4571567 -0.010340741 8.6737314e-22)
(0.47277362 -0.0097832743 -2.6691116e-22)
(0.48813379 -0.0092452362 5.9379473e-22)
(0.50322567 -0.0087273664 -2.237648e-22)
(0.51803961 -0.0082301987 -4.1047721e-22)
(0.53256775 -0.0077540789 -6.2061154e-22)
(0.54680397 -0.0072991852 4.078419e-22)
(0.56074385 -0.0068655481 -1.0821784e-22)
(0.57438461 -0.0064530737 2.1888182e-22)
(0.58772507 -0.0060615638 -4.6507623e-22)
(0.60076554 -0.0056907467 4.4519575e-22)
(0.6135082 -0.0053402878 6.0513201e-23)
(0.62595594 -0.0050098781 -5.935126e-23)
(0.63811642 -0.0046990996 2.1335783e-22)
(0.64999025 -0.0044080695 2.8636278e-22)
(0.66160864 -0.0041356946 2.1700378e-22)
(0.67292282 -0.0038857508 2.314068e-22)
(0.68413709 -0.0036487264 -1.7723168e-23)
(0.69474319 -0.0034606238 1.1828987e-22)
(0.70633928 -0.0032255039 1.0413174e-22)
(0.71456349 -0.0032647456 -2.0407932e-22)
(0.73170044 -0.0027583348 -9.8231717e-24)
(0.082419232 -0.028318764 1.0272654e-20)
(0.089617253 -0.030969044 3.8531806e-21)
(0.099556871 -0.032947451 -1.3773162e-20)
(0.11053951 -0.03400827 -1.6386411e-21)
(0.12188706 -0.03468904 1.6060393e-20)
(0.13377015 -0.035124332 -1.5580132e-20)
(0.1462282 -0.035293776 -3.1412339e-20)
(0.15918173 -0.035227729 1.5344942e-20)
(0.17257359 -0.034974075 1.9073385e-20)
(0.18636686 -0.034564769 -1.2098046e-20)
(0.20052241 -0.034022781 1.044236e-21)
(0.2149991 -0.033369198 8.4208539e-21)
(0.22975733 -0.032622922 -1.5749731e-20)
(0.24475898 -0.031800065 3.7682673e-21)
(0.25996675 -0.03091452 7.7957888e-21)
(0.27534417 -0.029978507 -5.1178663e-22)
(0.29085572 -0.029002828 -6.9265174e-23)
(0.30646696 -0.027997066 -7.632413e-21)
(0.3221445 -0.026969767 4.4204185e-21)
(0.33785618 -0.025928589 8.6576762e-21)
(0.3535711 -0.024880414 -3.8947268e-21)
(0.36925977 -0.023831427 -2.1717217e-21)
(0.38489417 -0.022787182 8.8630403e-22)
(0.40044787 -0.02175265 -1.7736076e-21)
(0.4158961 -0.020732254 1.3101919e-21)
(0.43121584 -0.019729899 6.9325763e-22)
(0.44638581 -0.018748997 1.7951696e-21)
(0.46138659 -0.017792489 -2.1688001e-21)
(0.4762006 -0.016862871 2.4605529e-21)
(0.49081208 -0.015962213 5.9024265e-22)
(0.50520712 -0.015092186 6.1084371e-22)
(0.51937363 -0.014254092 3.0155354e-22)
(0.53330128 -0.013448887 1.0145738e-21)
(0.54698146 -0.012677219 -1.5553508e-21)
(0.56040725 -0.011939453 4.3267036e-22)
(0.57357334 -0.011235712 2.189286e-22)
(0.58647602 -0.01056591 -7.8883703e-23)
(0.59911312 -0.0099297846 1.6354178e-23)
(0.61148395 -0.0093269525 -4.0059526e-22)
(0.62358962 -0.0087569226 2.2286519e-22)
(0.63543196 -0.0082192449 -2.9859372e-23)
(0.64701753 -0.007713285 5.4038442e-22)
(0.65834593 -0.0072392952 -2.5058761e-22)
(0.66944683 -0.0067955154 3.7619239e-23)
(0.68027161 -0.0063882408 7.4134095e-23)
(0.6910191 -0.0060018107 -9.3165013e-23)
(0.70119265 -0.0056955804 -1.5653425e-22)
(0.71234769 -0.0053118033 5.1146494e-22)
(0.72024332 -0.0053775769 1.8136474e-22)
(0.73679268 -0.0045509757 -8.5220118e-22)
(0.16657911 -0.037144392 1.8175598e-21)
(0.17093993 -0.040848218 -1.1810768e-20)
(0.17907307 -0.043500035 6.5934994e-21)
(0.18837128 -0.044840719 -1.4075359e-20)
(0.19767005 -0.045733829 -2.080008e-21)
(0.20734294 -0.04635371 9.9744962e-21)
(0.21754863 -0.046635685 -1.0911622e-20)
(0.22820658 -0.046609036 1.122122e-21)
(0.23926772 -0.046337741 1.3369456e-20)
(0.25071803 -0.045862433 3.8258577e-21)
(0.26253532 -0.045210368 -6.3768305e-21)
(0.2746893 -0.044407263 -3.2205628e-21)
(0.28714945 -0.043476949 -5.5398487e-21)
(0.29988538 -0.042440026 -6.7864625e-21)
(0.31286589 -0.041314417 2.7818011e-21)
(0.32605929 -0.040116072 2.8535094e-22)
(0.33943385 -0.03885929 1.5713994e-21)
(0.35295809 -0.037556908 -3.3820609e-21)
(0.36660095 -0.036220506 -4.5815749e-21)
(0.38033206 -0.034860556 2.5207534e-21)
(0.39412188 -0.033486551 3.5146046e-21)
(0.40794192 -0.032107092 -1.838382e-21)
(0.42176488 -0.030729952 1.6848436e-21)
(0.43556478 -0.029362128 -5.1139575e-22)
(0.44931707 -0.028009885 -4.3032918e-21)
(0.46299875 -0.026678782 -3.0604326e-21)
(0.47658842 -0.025373704 -2.9408165e-22)
(0.49006634 -0.024098888 3.1138649e-22)
(0.50341446 -0.022857956 -2.2054287e-21)
(0.51661644 -0.021653939 -1.0694142e-21)
(0.52965764 -0.020489316 2.1576038e-22)
(0.54252513 -0.019366047 -1.3963307e-21)
(0.55520762 -0.018285616 -6.3702311e-23)
(0.56769547 -0.017249068 -5.1079826e-22)
(0.57998063 -0.01625706 -4.3893364e-22)
(0.59205658 -0.015309904 -6.9182618e-22)
(0.60391832 -0.014407619 -1.0583966e-21)
(0.61556239 -0.013549977 -1.1871686e-23)
(0.62698668 -0.012736577 -3.4937751e-24)
(0.63819092 -0.011966861 -6.1747698e-22)
(0.64917552 -0.011240328 -1.6639687e-23)
(0.65994549 -0.010556212 -4.2355608e-22)
(0.67049911 -0.0099149754 -6.2280611e-22)
(0.68086397 -0.0093142824 4.9451465e-22)
(0.69099172 -0.0087629246 1.3684003e-23)
(0.70107346 -0.008239417 2.4426062e-22)
(0.71062927 -0.0078253868 -1.7918441e-22)
(0.72115314 -0.0073047621 -3.4712113e-22)
(0.72857865 -0.0073971842 -1.5812399e-23)
(0.74428415 -0.0062759929 4.857429e-22)
(0.27227598 -0.043373091 -2.296052e-20)
(0.27289073 -0.04810534 4.9976567e-20)
(0.2783408 -0.051339231 1.0736336e-20)
(0.28524869 -0.052895378 -1.6696732e-20)
(0.29179178 -0.054003934 -2.5025415e-21)
(0.29853238 -0.0548557 2.3670709e-21)
(0.30579585 -0.055324964 -2.1044553e-21)
(0.31350215 -0.05542961 -4.8737732e-21)
(0.32159893 -0.055242667 -4.1691262e-21)
(0.33009389 -0.054810134 -1.2631375e-20)
(0.33898322 -0.054161134 1.8933315e-20)
(0.34824682 -0.053323317 7.0238768e-21)
(0.35786175 -0.052323285 -1.7152347e-20)
(0.36780428 -0.051184748 9.9543687e-21)
(0.3780485 -0.049928723 7.9473651e-21)
(0.38856665 -0.04857421 -3.6356316e-22)
(0.39932995 -0.047138531 -2.7938651e-21)
(0.41030915 -0.045637506 -4.2905445e-21)
(0.42147487 -0.0440856 -1.6049727e-21)
(0.43279787 -0.042496058 -1.4184131e-21)
(0.44424943 -0.040881004 -3.381478e-21)
(0.45580154 -0.039251521 0)
(0.46742712 -0.037617704 -1.5004008e-21)
(0.47910021 -0.035988703 3.991233e-21)
(0.49079609 -0.034372756 5.7037898e-21)
(0.50249141 -0.032777221 -9.0740853e-22)
(0.51416428 -0.031208602 -3.3079005e-21)
(0.52579433 -0.029672583 3.4808749e-21)
(0.53736274 -0.028174056 3.3623493e-23)
(0.5488523 -0.026717161 3.7920139e-21)
(0.56024737 -0.025305326 -5.0634695e-22)
(0.57153392 -0.023941311 1.8053349e-21)
(0.58269946 -0.022627263 -9.121353e-22)
(0.59373307 -0.021364762 4.183322e-22)
(0.60462533 -0.020154886 -5.4319819e-22)
(0.61536829 -0.018998265 5.8560362e-22)
(0.62595546 -0.017895148 5.4066976e-22)
(0.63638181 -0.016845462 4.544561e-22)
(0.64664366 -0.015848903 -1.119791e-21)
(0.6567391 -0.014904966 8.0118615e-22)
(0.66666688 -0.014013202 -4.209846e-22)
(0.67643028 -0.013172822 -1.3735496e-21)
(0.68602607 -0.012384584 1.7533896e-21)
(0.69547936 -0.011645693 -5.48853e-23)
(0.70474226 -0.010967391 -1.9949572e-22)
(0.71399633 -0.010322814 -7.0315165e-24)
(0.72278292 -0.00981435 -1.9724576e-22)
(0.73251831 -0.0091723903 -5.9648119e-22)
(0.73935721 -0.009291342 7.8319423e-22)
(0.75400268 -0.0079094038 -5.0228872e-23)
(0.39450111 -0.046052972 -1.9262553e-20)
(0.39050798 -0.051845218 1.3250169e-20)
(0.39230441 -0.055613361 3.8429298e-21)
(0.39603646 -0.057411641 -8.1204829e-21)
(0.39915194 -0.058819432 1.2728015e-20)
(0.40230789 -0.060005421 8.2064795e-21)
(0.40602086 -0.060787119 -1.2890975e-20)
(0.41022827 -0.06116777 -6.3372119e-21)
(0.41485915 -0.061216622 1.3207976e-20)
(0.41993083 -0.060978804 -1.6537016e-20)
(0.42545522 -0.060484064 -1.4500901e-20)
(0.43142031 -0.059760529 1.5275543e-20)
(0.4378072 -0.058835749 7.0148084e-21)
(0.44459556 -0.057735383 -5.1933877e-21)
(0.45176236 -0.056482979 -1.35066e-21)
(0.45928175 -0.055100276 -3.6043596e-21)
(0.46712618 -0.05360747 4.8259906e-21)
(0.4752671 -0.052023352 3.6877122e-21)
(0.48367544 -0.050365376 -3.1284705e-21)
(0.49232203 -0.048649723 3.1239649e-21)
(0.50117793 -0.046891361 2.9581911e-21)
(0.51021474 -0.045104088 -3.3790515e-21)
(0.51940484 -0.043300567 3.6716673e-22)
(0.5287216 -0.041492346 -3.188857e-21)
(0.53813952 -0.039689884 8.1594766e-21)
(0.54763438 -0.037902575 6.5286466e-21)
(0.55718331 -0.036138773 1.0457994e-21)
(0.56676489 -0.034405825 -1.8402233e-21)
(0.57635917 -0.032710103 4.2788125e-21)
(0.58594773 -0.031057053 8.076348e-21)
(0.59551367 -0.029451239 2.4009394e-21)
(0.60504159 -0.027896404 3.7146973e-21)
(0.61451762 -0.026395524 2.1442058e-21)
(0.62392935 -0.024950879 8.5583293e-22)
(0.63326584 -0.023564121 -2.4590136e-22)
(0.64251758 -0.022236347 3.094726e-21)
(0.65167647 -0.020968177 6.9674121e-22)
(0.66073581 -0.019759832 3.1938336e-22)
(0.66969027 -0.018611234 5.7036563e-23)
(0.6785362 -0.017522052 1.211926e-21)
(0.68727066 -0.016492011 4.2411994e-23)
(0.69589508 -0.015520409 5.7562406e-22)
(0.7044047 -0.014608394 -1.2659877e-22)
(0.71282195 -0.01375284 -3.9759081e-22)
(0.72109976 -0.012967363 -1.9897785e-22)
(0.72940858 -0.012220245 -5.4534722e-22)
(0.73731507 -0.011632802 2.3524831e-22)
(0.74614432 -0.010887643 -1.6081223e-22)
(0.7523107 -0.011032775 -4.4778828e-22)
(0.76572853 -0.0094299228 2.8134496e-22)
(0.52714204 -0.044264073 3.4466276e-21)
(0.51789942 -0.051158892 -1.9340646e-20)
(0.51510862 -0.055470296 -2.5823212e-21)
(0.51489152 -0.057699076 5.7004854e-21)
(0.51405185 -0.059630571 3.58316e-21)
(0.5131511 -0.061341103 5.9079743e-22)
(0.51286531 -0.062622072 7.1725351e-21)
(0.51319194 -0.063477772 8.1499223e-21)
(0.51403866 -0.063963462 1.0107236e-20)
(0.51540982 -0.064114629 -1.185602e-20)
(0.51732272 -0.063960002 -2.2922536e-20)
(0.51977042 -0.06352827 -4.5052966e-21)
(0.52273434 -0.062847499 1.6804872e-20)
(0.52619334 -0.061944899 1.3401212e-20)
(0.53012394 -0.060846591 -5.7479738e-21)
(0.53449979 -0.059577347 9.0737396e-22)
(0.5392925 -0.058160608 -4.1863654e-21)
(0.54447246 -0.056618532 3.0899077e-21)
(0.5500095 -0.054971988 -2.9341616e-22)
(0.55587322 -0.053240534 -1.9686074e-21)
(0.56203341 -0.051442408 8.4981642e-21)
(0.56846032 -0.049594542 -4.8975086e-22)
(0.57512498 -0.047712558 6.0096168e-22)
(0.58199936 -0.045810774 -4.6247265e-22)
(0.58905652 -0.043902219 -4.5120615e-21)
(0.5962708 -0.041998645 4.4038833e-21)
(0.60361787 -0.040110557 1.8445315e-21)
(0.61107482 -0.038247242 -3.4440715e-21)
(0.6186202 -0.036416814 -4.080738e-21)