/*--------------------------------*- C++ -*----------------------------------*\
  =========                 |
  \\      /  F ield         | OpenFOAM: The Open Source CFD Toolbox
   \\    /   O peration     | Website:  https://openfoam.org
    \\  /    A nd           | Version:  6
     \\/     M anipulation  |
\*---------------------------------------------------------------------------*/
FoamFile
{
    version     2.0;
    format      ascii;
    class       surfaceScalarField;
    location    "141";
    object      phi_0;
}
// * * * * * * * * * * * * * * * * * * * * * * * * * * * * * * * * * * * * * //

dimensions      [0 3 -1 0 0 0 0];

internalField   nonuniform List<scalar> 
18180
(
0.00031873077
-0.00016316312
-0.00015556764
0.001309217
-0.0013669285
0.00037644226
0.0030329013
-0.0033336455
0.0016099612
0.0055497982
-0.005976001
0.003459104
0.0089182361
-0.009239141
0.0058707031
0.013192869
-0.013079613
0.00880498
0.01842202
-0.01745995
0.0122308
0.024644708
-0.022345937
0.01612325
0.031887501
-0.027703484
0.020460691
0.040161441
-0.033496008
0.025222067
0.049459359
-0.039682674
0.030384756
0.059753946
-0.046217479
0.035922892
0.070996988
-0.053049154
0.041806111
0.083120223
-0.060121923
0.047998688
0.096038424
-0.067377209
0.054459008
0.10965523
-0.0747564
0.061139591
0.12387118
-0.08220452
0.067988572
0.13859892
-0.089674529
0.074946793
0.15383701
-0.097149297
0.081911201
-0.10462645
0.088679385
0.16978408
0.00039749878
-0.0005606619
0.0016096014
-0.0025790312
0.0036893332
-0.0054133772
0.0066874706
-0.0089741384
0.010650694
-0.013202365
0.01561793
-0.018046849
0.021616341
-0.023458361
0.028657364
-0.02938696
0.036733077
-0.035779198
0.045813304
-0.042576235
0.055843876
-0.049713245
0.066746417
-0.05712002
0.078419897
-0.064722634
0.090744032
-0.072446058
0.10358433
-0.080217508
0.11679818
-0.087970253
0.13024105
-0.095647388
0.14377324
-0.10320672
0.15725882
-0.11063488
-0.11786235
0.17049472
0.00048062533
-0.0010412872
0.0019187056
-0.0040171115
0.0043524951
-0.0078471668
0.0078165921
-0.012438235
0.012337709
-0.017723482
0.01792927
-0.02363841
0.024586333
-0.030115424
0.032281316
-0.037081943
0.040960969
-0.044458851
0.050545072
-0.052160338
0.06092724
-0.060095412
0.071977994
-0.068170775
0.083549999
-0.076294638
0.095485018
-0.084381077
0.1076219
-0.092354384
0.11980446
-0.10015282
0.13188819
-0.10773112
0.14374365
-0.11506218
0.15524884
-0.12214007
-0.12891471
0.1663012
0.00056617175
-0.001607459
0.0022279503
-0.00567889
0.0050006284
-0.010619845
0.0088940404
-0.016331647
0.013905303
-0.022734744
0.020011945
-0.029745052
0.02716657
-0.037270049
0.035293518
-0.045208892
0.044287977
-0.05345331
0.054017913
-0.061890274
0.064328869
-0.070406368
0.075051288
-0.078893194
0.086009684
-0.087253034
0.097032653
-0.095404047
0.10796261
-0.10328434
0.11866409
-0.11085429
0.12902975
-0.11809679
0.13898304
-0.12501547
0.14847495
-0.13163198
-0.13794558
0.15750582
0.00065088845
-0.0022583474
0.0025243499
-0.0075523514
0.0056036522
-0.013699147
0.0098644951
-0.02059249
0.015264656
-0.028134905
0.021736471
-0.036216867
0.029182559
-0.044716137
0.037474987
-0.05350132
0.046458108
-0.062436431
0.055954953
-0.071387119
0.065776552
-0.080227967
0.075733132
-0.088849773
0.08564583
-0.097165731
0.095357494
-0.10511571
0.10474129
-0.11266813
0.11370624
-0.11981925
0.12219939
-0.12658993
0.13020455
-0.13302063
0.13773795
-0.13916538
-0.14506792
0.14486029
0.00073063811
-0.0029889855
0.0027920946
-0.0096138079
0.006126592
-0.017033645
0.010666742
-0.02513264
0.016322693
-0.033790857
0.0229753
-0.042869474
0.030474498
-0.052215335
0.038642478
-0.0616693
0.047281274
-0.071075228
0.056183822
-0.080289666
0.065146972
-0.089191116
0.073984676
-0.097687477
0.082539545
-0.1057206
0.090691343
-0.11326751
0.098361471
-0.12033826
0.10551329
-0.12697107
0.11214875
-0.13322539
0.11830233
-0.13917421
0.12403351
-0.14489656
-0.1504636
0.1294292
0.00080073348
-0.003789719
0.0030139243
-0.011826999
0.0065329112
-0.020552632
0.011240079
-0.029839808
0.016992736
-0.039543513
0.023618594
-0.049495332
0.030918273
-0.059515014
0.038673381
-0.069424408
0.046658837
-0.079060684
0.054657457
-0.088288287
0.06247451
-0.097008168
0.069949992
-0.10516296
0.076966981
-0.11273759
0.083455095
-0.11975562
0.089389078
-0.12627225
0.094783254
-0.13236524
0.099683214
-0.13812535
0.10415637
-0.14364737
0.10828295
-0.14902314
-0.15433384
0.11215319
0.00085606092
-0.00464578
0.0031720683
-0.014143006
0.0067872412
-0.024167804
0.011529826
-0.034582393
0.017203466
-0.045217153
0.023586588
-0.055878454
0.030439919
-0.066368345
0.037519373
-0.076503862
0.04459184
-0.08613315
0.051451036
-0.095147483
0.057930651
-0.10348778
0.063912777
-0.11114509
0.069330623
-0.11815544
0.074165647
-0.12459065
0.078440183
-0.13054678
0.082207236
-0.1361323
0.085539374
-0.14145749
0.088518405
-0.1466264
0.091227174
-0.15173191
-0.1568523
0.093745631
0.00089026442
-0.0055360444
0.0032482901
-0.016501032
0.0068576355
-0.02777715
0.011492484
-0.039217242
0.016906835
-0.050631504
0.022838925
-0.061810543
0.0290237
-0.07255312
0.035209277
-0.082689439
0.041173947
-0.09209782
0.046740402
-0.10071394
0.051784645
-0.10853203
0.056238376
-0.11559882
0.060085085
-0.12200214
0.063351169
-0.12785673
0.066094111
-0.13328972
0.068389927
-0.13842811
0.070321769
-0.14338933
0.071971057
-0.14827569
0.073411722
-0.15317258
-0.15814793
0.074707349
0.00089982005
-0.0064358645
0.0032333864
-0.018834598
0.0067291749
-0.031272938
0.011111192
-0.043599259
0.016092504
-0.055612816
0.021384642
-0.067102681
0.0267139
-0.077882378
0.031839124
-0.087814663
0.036567082
-0.096825778
0.040762253
-0.10490911
0.044349437
-0.11211921
0.047309292
-0.11855867
0.049668325
-0.12436118
0.051485711
-0.12967412
0.052839398
-0.13464341
0.05381367
-0.13940238
0.054489538
-0.1440652
0.054938624
-0.14872477
0.055220329
-0.15345428
0.055380741
-0.15830834
-0.00020237918
0.0002023791
9.615826e-11
-0.00067774935
0.0004753701
1.0619457e-10
-0.0013424312
0.00066468182
1.0882245e-10
-0.0021323025
0.00078987117
1.1551325e-10
-0.0029957843
0.00086348179
1.1562466e-10
-0.0038907543
0.00089496988
1.0819106e-10
-0.0047823121
0.00089155781
9.4901291e-11
-0.0056409111
0.00085859896
8.0279108e-11
-0.0064408873
0.00079997612
6.5233264e-11
-0.0071593085
0.00071842118
5.2560164e-11
-0.0077750562
0.00061574762
4.1549007e-11
-0.0082680899
0.00049303366
3.2946931e-11
-0.0086188677
0.00035077782
2.5941019e-11
-0.008807913
0.00018904527
2.0370407e-11
-0.008815559
7.6459599e-06
1.6028769e-11
-0.0086219726
-0.00019358634
1.2427757e-11
-0.0082074185
-0.00041455412
9.8312009e-12
-0.0075518534
-0.00065556513
7.8355742e-12
-0.0066345206
-0.00091733282
6.8036504e-12
-0.0011862536
-0.0054482671
6.8184174e-12
-0.0001879753
0.00039035441
-0.00062500961
0.00091240444
-0.0012287581
0.0012684303
-0.0019352018
0.0014963149
-0.0026921488
0.0016204289
-0.0034562957
0.0016591168
-0.0041910802
0.0016263424
-0.0048648726
0.0015323914
-0.0054495375
0.001384641
-0.0059192988
0.0011881826
-0.0062498246
0.00094627345
-0.0064174849
0.00066069397
-0.0063987471
0.00033203997
-0.0061696966
-4.0005165e-05
-0.0057057124
-0.00045633832
-0.0049813859
-0.00091791282
-0.0039707377
-0.0014252023
-0.0026471377
-0.0019791651
-0.00098315574
-0.0025813148
-0.0032018356
0.0010324263
-0.00015892849
0.00054928289
-0.0005188933
0.0012723693
-0.0010007733
0.0017503104
-0.001541264
0.0020368057
-0.0020873554
0.0021665204
-0.002593741
0.0021655024
-0.0030208735
0.0020534749
-0.0033332971
0.001844815
-0.0034983024
0.0015496463
-0.0034848501
0.0011747303
-0.0032626871
0.00072411048
-0.0028016268
0.00019963363
-0.0020709151
-0.00039867168
-0.001038717
-0.0010722033
0.00032831331
-0.0018233686
0.0020653086
-0.0026549081
0.0042091486
-0.0035690423
0.0067981535
-0.00456817
0.0098720154
-0.0056551768
-0.0067798356
0.013450015
-0.0001175673
0.00066685018
-0.00036699938
0.0015218014
-0.00067351479
0.0020568258
-0.00097482659
0.0023381175
-0.001216854
0.0024085478
-0.0013515921
0.0023002406
-0.0013354544
0.0020373372
-0.0011278181
0.0016371787
-0.00068982775
0.001111656
1.6557222e-05
0.00046834532
0.0010293464
-0.00028867874
0.0023871656
-0.0011581855
0.0041298016
-0.0021413077
0.0062986842
-0.0032410859
0.0089373921
-0.0044620765
0.01209221
-0.0058097256
0.015812501
-0.0072893338
0.020150411
-0.0089060795
0.025160649
-0.010665416
-0.012492774
0.030873588
-6.6907663e-05
0.00073375782
-0.00017916622
0.00163406
-0.00026653258
0.0021441922
-0.00026768834
0.0023392733
-0.00012718799
0.0022680475
0.00020617787
0.0019668747
0.00078071113
0.0014628039
0.0016429755
0.00077491434
0.0028387665
-8.4134965e-05
0.0044138968
-0.001106785
0.0064147602
-0.0022895422
0.0088887479
-0.0036321732
0.011884574
-0.0051371336
0.015452604
-0.0068091164
0.019645232
-0.0086547047
0.024517498
-0.010681991
0.030127965
-0.0128998
0.036539231
-0.015317346
0.043818696
-0.01794488
-0.020682766
0.052008687
-9.9843287e-06
0.00074374214
3.4536419e-05
0.0015895392
0.00019989389
0.0019788347
0.00054677314
0.0019923941
0.0011322599
0.0016825607
0.0020110014
0.0010881332
0.0032361701
0.00023763524
0.004860347
-0.00084926256
0.0069361791
-0.002159967
0.0095167535
-0.0036873594
0.012655806
-0.0054285951
0.016407827
-0.0073841938
0.020827985
-0.0095572913
0.025971967
-0.011953099
0.031895883
-0.014578621
0.038656561
-0.017442669
0.046312734
-0.020555973
0.054927101
-0.023931712
0.064570157
-0.027587936
-0.031405898
0.075293288
5.0751895e-05
0.00069299023
0.00026566026
0.0013746308
0.00070826035
0.0015362346
0.0014390416
0.0012616128
0.0025168391
0.00060476319
0.0039995952
-0.00039462283
0.0059449561
-0.0017077256
0.0084106607
-0.0033149672
0.011454671
-0.0052039776
0.015135142
-0.0073678301
0.019510151
-0.0098036038
0.024637172
-0.012511215
0.030572341
-0.015492461
0.037369558
-0.018750315
0.045079549
-0.022288612
0.053749326
-0.026112446
0.063423
-0.030229647
0.074145169
-0.034653882
0.085969867
-0.039412633
-0.044388878
0.098952847
0.00011379715
0.00057919308
0.00050850687
0.00097992109
0.0012459904
0.00079875108
0.0023867926
0.00012081063
0.0039912653
-0.00099970952
0.0061199127
-0.0025232703
0.008833372
-0.004421185
0.012192237
-0.0066738319
0.016256651
-0.0092683922
0.021085566
-0.012196745
0.0267357
-0.015453737
0.033260211
-0.019035726
0.040707113
-0.022939363
0.049117465
-0.027160667
0.058523476
-0.031694623
0.06894688
-0.036535851
0.080398755
-0.041681522
0.09288264
-0.047137766
0.10640603
-0.052936029
-0.058996103
0.12101326
0.00017849689
0.00040069618
0.00076003423
0.00039838374
0.0018053489
-0.00024656362
0.003374732
-0.0014485725
0.005529025
-0.0031540025
0.0083293634
-0.0053236086
0.011836552
-0.0079283735
0.016110142
-0.010947422
0.021207152
-0.014365402
0.027180442
-0.018170035
0.03407679
-0.022350085
0.041934687
-0.026893623
0.050781911
-0.031786586
0.060632887
-0.037011644
0.071485838
-0.042547574
0.083319776
-0.048369788
0.096092293
-0.054454039
0.1097409
-0.060786376
0.12419652
-0.067391646
-0.074275089
0.13947551
0.00024512854
0.0010199545
0.0023833521
0.0043938837
0.0071105842
0.010591955
0.014894382
0.020070209
0.026165498
0.03321753
0.0412522
0.050281469
0.060300994
0.071288038
0.083199472
0.095969276
0.10950381
0.12366422
0.13818378
0.15258808
-0.003507614
-0.001940653
1.1690742e-11
-0.0012857975
-0.0022218166
1.6429102e-11
0.0011948476
-0.0024806451
2.1382549e-11
0.0038774218
-0.0026825743
2.6395807e-11
0.0067351216
-0.0028576998
3.2345606e-11
0.0097506412
-0.0030155196
3.6495097e-11
0.012905046
-0.003154405
4.3212211e-11
0.016180314
-0.0032752678
4.9449654e-11
0.019560743
-0.0033804293
5.5041526e-11
0.023032115
-0.0034713722
5.8943789e-11
0.026581144
-0.0035490286
6.0251971e-11
0.030195404
-0.0036142605
5.7984823e-11
0.033863254
-0.0036678493
5.1118682e-11
0.037573696
-0.003710442
3.8674656e-11
0.041316279
-0.0037425835
1.9621512e-11
0.045081032
-0.0037647532
-6.7770866e-12
0.048858415
-0.0037773824
-4.1155421e-11
0.052639283
-0.003780868
-8.3508384e-11
0.056414869
-0.0037755862
-1.3344822e-10
0.060176774
-0.0037619051
-1.8956614e-10
0.063916967
-0.0037401926
-2.4979139e-10
0.067627791
-0.003710823
-3.1068183e-10
0.071301972
-0.0036741807
-3.6795112e-10
0.074932635
-0.0036306628
-4.1575373e-10
0.078513314
-0.0035806789
-4.4756936e-10
0.082037965
-0.0035246499
-4.5559942e-10
0.085500971
-0.003463006
-4.3225616e-10
0.088897155
-0.0033961838
-3.697595e-10
0.092221778
-0.0033246226
-2.625302e-10
0.095470539
-0.0032487607
-1.0691525e-10
0.098639571
-0.0031690323
9.5387335e-11
0.10172543
-0.0030858639
3.3800843e-10
0.10472511
-0.0029996714
6.0565771e-10
0.10763596
-0.0029108583
8.7653669e-10
0.11045578
-0.0028198144
1.1181809e-09
0.11318269
-0.0027269155
1.293887e-09
0.11581521
-0.0026325246
1.3597808e-09
0.11835221
-0.0025369941
1.2777854e-09
0.12079288
-0.0024406736
1.0146085e-09
0.12313679
-0.0023439102
5.6198837e-10
0.12538388
-0.0022470904
-6.5023379e-11
0.12753445
-0.0021505665
-8.0923986e-10
0.12958948
-0.0020550293
-1.5753504e-09
0.13154995
-0.0019604685
-2.2249565e-09
0.13341996
-0.0018700088
-2.6020692e-09
0.13519803
-0.0017780677
-2.5644548e-09
0.13690864
-0.0017106047
-1.9943781e-09
0.13850763
-0.0015989919
-9.5085473e-10
0.14019591
-0.0016882824
5.875151e-10
-0.0013327462
2.2425952e-09
0.0028530675
-0.0037612942
0.0049502432
-0.0043189922
0.007293135
-0.0048235369
0.0098193006
-0.0052087399
0.012507679
-0.0055460783
0.015345945
-0.0058537857
0.018317358
-0.0061258177
0.021405511
-0.0063634208
0.024596385
-0.0065713039
0.027877219
-0.0067522058
0.03123588
-0.0069076897
0.034660888
-0.0070392679
0.038141385
-0.0071483465
0.041667025
-0.0072360826
0.045227892
-0.0073034498
0.048814451
-0.0073513122
0.052417523
-0.0073804552
0.056028265
-0.0073916099
0.059638157
-0.007385478
0.063239006
-0.0073627537
0.066822952
-0.0073241386
0.070382481
-0.0072703526
0.073910441
-0.0072021408
0.077400055
-0.0071202764
0.080844936
-0.0070255604
0.084239105
-0.0069188185
0.087576995
-0.0068008964
0.090853465
-0.0066726538
0.0940638
-0.006534957
0.09720371
-0.0063886713
0.10026933
-0.0062346546
0.10325722
-0.0060737499
0.10616433
-0.0059067805
0.10898801
-0.0057345455
0.11172602
-0.0055578172
0.11437644
-0.005377341
0.11693776
-0.0051938378
0.11940877
-0.0050080083
0.12178865
-0.0048205482
0.12407688
-0.004632148
0.12627337
-0.0044435803
0.12837835
-0.0042555473
0.13039275
-0.0040694286
0.13231749
-0.0038852068
0.13415658
-0.003709099
0.13590855
-0.0035300397
0.13759742
-0.0033994704
0.13918007
-0.0031816434
0.14085221
-0.0033604196
-0.0026630353
0.015021379
-0.0053326581
0.016852509
-0.0061501224
0.018906079
-0.0068771069
0.021112161
-0.0074148215
0.02345912
-0.0078930372
0.025943304
-0.0083379693
0.028552094
-0.0087346079
0.031272011
-0.0090833377
0.034091954
-0.009391247
0.037001693
-0.0096619454
0.039991109
-0.0098971052
0.04305034
-0.010098499
0.046169862
-0.010267869
0.04934042
-0.010406641
0.052552985
-0.010516014
0.055798745
-0.010597072
0.059069111
-0.010650821
0.06235572
-0.01067822
0.065650452
-0.010680209
0.068945439
-0.010657742
0.072233097
-0.010611796
0.075506136
-0.010543392
0.078757594
-0.010453598
0.081980848
-0.010343531
0.085169642
-0.010214354
0.088318098
-0.010067275
0.091420732
-0.0099035306
0.094472464
-0.0097243853
0.097468619
-0.0095311121
0.10040494
-0.0093249874
0.10327756
-0.0091072754
0.10608303
-0.0088792216
0.10881829
-0.0086420428
0.11148067
-0.0083969213
0.11406785
-0.0081450012
0.1165779
-0.0078873879
0.11900921
-0.007625152
0.12136054
-0.0073593358
0.12363097
-0.0070909758
0.12581992
-0.0068211028
0.12792721
-0.0065508717
0.129953
-0.0062813346
0.13189812
-0.0060145531
0.13376344
-0.0057505188
0.13555279
-0.0054984579
0.13726482
-0.005242067
0.13892256
-0.0050572122
0.14048524
-0.0047443234
0.14213795
-0.005013123
-0.0040015627
0.032056907
-0.0065159776
0.033472135
-0.00756535
0.035077672
-0.0084826436
0.036800541
-0.0091376909
0.038641429
-0.009733925
0.040606632
-0.010303173
0.04268898
-0.010816956
0.04487895
-0.011273307
0.047168965
-0.011681262
0.049551798
-0.012044778
0.05201974
-0.012365048
0.054564837
-0.012643596
0.057179077
-0.012882109
0.059854418
-0.013081982
0.062582798
-0.013244394
0.065356173
-0.013370447
0.068166562
-0.01346121
0.071006088
-0.013517746
0.073867019
-0.01354114
0.076741802
-0.013532525
0.079623107
-0.0134931
0.082503852
-0.013424138
0.085377245
-0.013326991
0.088236804
-0.013203089
0.091076385
-0.013053935
0.0938902
-0.01288109
0.096672838
-0.012686168
0.099419268
-0.012470816
0.10212485
-0.012236698
0.10478535
-0.011985486
0.10739691
-0.011718835
0.10995607
-0.011438381
0.11245975
-0.01114572
0.11490523
-0.010842407
0.11729018
-0.010529947
0.11961259
-0.010209796
0.1218708
-0.0098833681
0.12406351
-0.0095520407
0.12618972
-0.0092171859
0.12824879
-0.008880173
0.13024045
-0.0085425363
0.1321648
-0.0082056787
0.13402258
-0.0078723356
0.13581459
-0.0075425318
0.13754452
-0.0072283794
0.13921115
-0.0069087045
0.14083618
-0.0066822345
0.14238228
-0.0062904291
0.14401928
-0.0066501254
-0.0053642242
0.052649008
-0.0071562985
0.053489623
-0.0084059653
0.054483768
-0.0094767884
0.055565755
-0.010219678
0.056750401
-0.010918571
0.058052001
-0.011604772
0.059469064
-0.01223402
0.060996725
-0.012800968
0.062630771
-0.013315308
0.064366606
-0.013780613
0.066198708
-0.01419715
0.06812081
-0.014565697
0.070126145
-0.014887444
0.072207614
-0.01516345
0.074357868
-0.015394649
0.076569396
-0.015581975
0.078834605
-0.015726419
0.081145901
-0.015829042
0.083495756
-0.015890995
0.085876769
-0.015913538
0.088281712
-0.015898044
0.090703585
-0.015846011
0.093135649
-0.015759055
0.095571462
-0.015638902
0.09800491
-0.015487383
0.10043023
-0.015306408
0.10284202
-0.015097955
0.10523525
-0.01486405
0.1076053
-0.014606744
0.1099479
-0.014328095
0.11225922
-0.014030148
0.11453575
-0.013714918
0.11677441
-0.013384381
0.11897246
-0.013040455
0.12112752
-0.012685006
0.12323756
-0.012319836
0.12530089
-0.011946697
0.12731615
-0.011567301
0.12928232
-0.011183357
0.13119872
-0.010796569
0.13306504
-0.010408856
0.13488133
-0.010021972
0.13664832
-0.0096393196
0.13836677
-0.0092609872
0.14004021
-0.0089018187
0.14166774
-0.008536233
0.14326935
-0.0082838457
0.14481217
-0.0078332488
0.14644711
-0.0082850607
-0.0067742607
0.075222297
-0.007085307
0.075327282
-0.0085109508
0.075551676
-0.0097011819
0.075851994
-0.010519996
0.076256271
-0.011322849
0.076781361
-0.012129862
0.077430299
-0.012882958
0.078203016
-0.013573684
0.079097819
-0.014210111
0.080111561
-0.014794355
0.081239998
-0.015325588
0.082477835
-0.015803534
0.083818888
-0.016228497
0.085256377
-0.016600939
0.086783125
-0.016921397
0.088391681
-0.017190531
0.090074426
-0.017409164
0.091823681
-0.017578298
0.093631805
-0.017699119
0.095491258
-0.017772991
0.097394676
-0.017801462
0.099334917
-0.017786252
0.10130511
-0.01772925
0.1032987
-0.01763249
0.10530946
-0.017498142
0.10733153
-0.017328477
0.10935943
-0.017125856
0.11138807
-0.016892693
0.11341277
-0.016631439
0.11542922
-0.01634455
0.11743354
-0.016034469
0.11942223
-0.015703603
0.12139216
-0.015354309
0.12334058
-0.014988883
0.12526513
-0.01460955
0.12716376
-0.014218469
0.1290348
-0.013817736
0.1308769
-0.013409401
0.13268906
-0.012995514
0.13447061
-0.012578127
0.1362213
-0.01215954
0.1379412
-0.011741874
0.13963107
-0.011329185
0.14129175
-0.010921669
0.14292665
-0.010536722
0.1445353
-0.010144884
0.14613585
-0.0098843919
0.14770057
-0.0093979725
0.14935903
-0.0099435145
-0.0082637867
0.098025874
-0.0061583343
0.097258624
-0.0077437006
0.096582358
-0.0090249153
0.095997946
-0.0099355846
0.09554152
-0.010866422
0.09522431
-0.011812652
0.095051684
-0.012710332
0.095027645
-0.013549645
0.095151726
-0.014334192
0.095420661
-0.01506329
0.095830092
-0.015735019
0.096374608
-0.01634805
0.097047725
-0.016901614
0.09784221
-0.017395424
0.09875038
-0.017829567
0.099764263
-0.018204414
0.10087572
-0.018520624
0.10207658
-0.018779153
0.1033587
-0.01898124
0.1047141
-0.019128389
0.10613499
-0.019222353
0.10761386
-0.019265117
0.10914349
-0.01925888
0.11071702
-0.019206026
0.11232798
-0.0191091
0.11397028
-0.01897078
0.11563826
-0.018793837
0.11732669
-0.018581116
0.11903074
-0.018335497
0.12074606
-0.018059863
0.12246868
-0.017757087
0.12419506
-0.017429989
0.12592209
-0.017081336
0.12764702
-0.016713818
0.12936752
-0.016330043
0.13108159
-0.01593254
0.13278762
-0.015523767
0.13448435
-0.015106131
0.13617087
-0.014682037
0.13784664
-0.014253891
0.13951149
-0.013824396
0.14116566
-0.013396047
0.14281003
-0.012973554
0.14444562
-0.01255726
0.14607583
-0.012166932
0.14770074
-0.011769786
0.14933658
-0.011520239
0.15096129
-0.011022677
0.15268185
-0.011664078
-0.0098745627
0.11918964
-0.0043347105
0.11749705
-0.0060511187
0.11585756
-0.0073854209
0.11435506
-0.0084330814
0.11302578
-0.0095371486
0.11186725
-0.010654118
0.11088492
-0.011728005
0.11008508
-0.012749806
0.10946714
-0.013716252
0.10902651
-0.014622655
0.10875737
-0.015465877
0.10865306
-0.01624374
0.10870598
-0.01695454
0.10890783
-0.017597277
0.10924989
-0.018171621
0.1097232
-0.018677729
0.11031875
-0.019116172
0.11102753
-0.019487928
0.11184065
-0.019794359
0.11274943
-0.020037172
0.11374547
-0.020218394
0.11482069
-0.020340335
0.11596738
-0.020405569
0.11717824
-0.02041689
0.11844642
-0.02037728
0.11976551
-0.020289873
0.12112959
-0.020157915
0.1225332
-0.019984729
0.12397138
-0.01977367
0.12543962
-0.019528106
0.12693391
-0.019251371
0.12845067
-0.01894675
0.12998678
-0.018617452
0.13153956
-0.018266596
0.13310673
-0.01789721
0.13468641
-0.01751222
0.13627712
-0.017114477
0.13787775
-0.016706765
0.13948758
-0.01629187
0.14110627
-0.015872579
0.14273389
-0.015452011
0.1443709
-0.015033058
0.14601843
-0.014621088
0.1476778
-0.014216631
0.14935252
-0.013841649
0.15104332
-0.013460586
0.15276462
-0.013241536
0.15450021
-0.012758265
0.15633441
-0.013498275
-0.011657935
0.13689655
-0.0017557566
0.13437861
-0.0035331763
0.13182006
-0.0048268735
0.12946302
-0.0060760389
0.12733469
-0.007408818
0.12541644
-0.0087358739
0.12371112
-0.010022678
0.1222238
-0.011262484
0.12095293
-0.012445386
0.11989275
-0.013562472
0.11903574
-0.014608872
0.11837357
-0.015581566
0.11789723
-0.016478202
0.1175972
-0.017297248
0.11746361
-0.018038034
0.11748646
-0.018700572
0.11765571
-0.019285428
0.11796146
-0.019793679
0.11839398
-0.020226873
0.1189438
-0.020586994
0.11960181
-0.020876403
0.12035928
-0.021097808
0.12120794
-0.021254223
0.12213996
-0.021348917
0.12314806
-0.021385377
0.12422545
-0.021367263
0.12536589
-0.021298354
0.12656368
-0.021182515
0.12781365
-0.021023647
0.12911119
-0.020825648
0.1304522
-0.02059238
0.13183309
-0.020327639
0.13325077
-0.020035131
0.13470263
-0.019718452
0.13618651
-0.019381088
0.1377007
-0.019026411
0.13924392
-0.018657696
0.14081529
-0.018278144
0.14241438
-0.017890952
0.14404112
-0.01749932
0.14569591
-0.017106808
0.14737959
-0.016716732
0.14909363
-0.016335128
0.15083975
-0.015962755
0.15262171
-0.015623603
0.154441
-0.015279878
0.15631032
-0.015110854
0.15821946
-0.014667405
0.16023048
-0.015509301
-0.013673943
0.15005259
0.00077973386
0.14676366
-0.00024424705
0.14346634
-0.0015295544
0.14041858
-0.0030282814
0.13762371
-0.0046139478
0.13507547
-0.0061876354
0.1327757
-0.0077229065
0.13072448
-0.0092112645
0.12891937
-0.01064028
0.12735518
-0.011998278
0.12602407
-0.013277765
0.12491665
-0.01447414
0.12402273
-0.015584281
0.12333165
-0.016606172
0.12283244
-0.017538821
0.12251398
-0.018382111
0.12236519
-0.019136646
0.12237518
-0.019803663
0.12253327
-0.020384966
0.12282915
-0.020882874
0.12325291
-0.021300159
0.1237951
-0.021639998
0.12444679
-0.021905918
0.12519961
-0.022101741
0.12604577
-0.022231536
0.12697807
-0.022299561
0.12798993
-0.02231021
0.12907537
-0.022267963
0.13022906
-0.022177334
0.13144624
-0.022042829
0.13272277
-0.021868902
0.13405505
-0.021659924
0.13544008
-0.021420157
0.13687536
-0.021153733
0.13835892
-0.020864649
0.13988928
-0.020556769
0.14146542
-0.02023384
0.1430868
-0.019899522
0.14475331
-0.019557461
0.14646529
-0.0192113
0.14822356
-0.018865081
0.15002939
-0.018522559
0.15188473
-0.018190468
0.15379177
-0.017869804
0.15575467
-0.017586503
0.15777562
-0.017300827
0.15986619
-0.017201419
0.1620206
-0.016821819
0.16428372
-0.017772417
-0.015987544
0.18890952
0.0053818044
-0.19351159
0.18509951
0.0035657605
0.18170751
0.001862449
0.17856242
0.00011681166
0.17562689
-0.0016784227
0.1728759
-0.0034366456
0.17029122
-0.005138228
0.16786386
-0.006783904
0.16558994
-0.0083663569
0.1634673
-0.009875637
0.16149408
-0.011304546
0.15966817
-0.012648233
0.15798694
-0.013903043
0.15644708
-0.015066312
0.15504467
-0.016136419
0.15377526
-0.017112699
0.15263391
-0.017995297
0.15161533
-0.018785082
0.15071394
-0.019483577
0.14992397
-0.020092901
0.14923951
-0.020615704
0.14865463
-0.02105511
0.14816336
-0.021414654
0.14775984
-0.021698221
0.1474383
-0.021909992
0.14719312
-0.022054376
0.14701886
-0.022135953
0.14691031
-0.022159417
0.1468625
-0.022129521
0.14687069
-0.022051023
0.14693044
-0.021928648
0.14703756
-0.021767043
0.14718815
-0.021570751
0.14737861
-0.02134419
0.1476056
-0.021091643
0.14786609
-0.02081726
0.14815733
-0.020525072
0.14847683
-0.020219028
0.14882244
-0.019903065
0.14919226
-0.019581124
0.14958475
-0.019257572
0.14999868
-0.018936485
0.15043328
-0.018625069
0.15088804
-0.018324563
0.15136358
-0.018062048
0.15185977
-0.017797014
0.1523811
-0.017722755
0.15292326
-0.017363971
0.15350933
-0.018358487
-0.016581473
0.21685839
0.0087801051
-0.22025669
0.21338453
0.007039616
0.21017175
0.0050752291
0.20706647
0.0032220913
0.20401991
0.0013681384
0.20106303
-0.00047976129
0.1982127
-0.0022879037
0.19547345
-0.0040446527
0.19285117
-0.0057440791
0.1903527
-0.0073771647
0.18798323
-0.0089350789
0.18574617
-0.010411169
0.1836435
-0.011800377
0.18167593
-0.013098743
0.17984293
-0.014303413
0.17814286
-0.015412629
0.17657318
-0.016425619
0.17513058
-0.01734248
0.1738111
-0.018164101
0.17261029
-0.018892095
0.17152331
-0.019528724
0.17054503
-0.020076824
0.16967011
-0.02053974
0.16889314
-0.020921248
0.16820864
-0.021225491
0.16761117
-0.021456906
0.16709537
-0.021620158
0.16665602
-0.021720069
0.16628806
-0.02176156
0.16598663
-0.021749593
0.1657471
-0.021689118
0.16556509
-0.02158503
0.16543648
-0.021442134
0.16535741
-0.021265122
0.16532432
-0.021058557
0.16533394
-0.020826874
0.16538326
-0.020574397
0.1654696
-0.020305367
0.16559056
-0.020024025
0.16574406
-0.019734624
0.16592835
-0.019441862
0.16614204
-0.019150175
0.16638413
-0.018867159
0.16665413
-0.018594566
0.16695191
-0.018359821
0.16727869
-0.018123797
0.16763373
-0.018077792
0.16802531
-0.01775555
0.16843549
-0.018768668
-0.01705664
0.24376726
0.01150403
-0.24649118
0.24091685
0.0098900233
0.23806367
0.0079284085
0.23521674
0.0060690209
0.23233897
0.004245907
0.22945119
0.0024080231
0.22658461
0.00057867621
0.22375853
-0.001218574
0.22098887
-0.0029744195
0.21829157
-0.0046798604
0.21568048
-0.0063239884
0.2131666
-0.0078972913
0.21075855
-0.0093923242
0.20846288
-0.010803074
0.20628422
-0.01212476
0.20422547
-0.013353874
0.20228797
-0.014488117
0.20047176
-0.015526271
0.19877576
-0.016468102
0.19719794
-0.017314275
0.19573548
-0.018066269
0.19438495
-0.018726286
0.19314238
-0.019297169
0.19200345
-0.019782318
0.19096356
-0.020185605
0.19001795
-0.020511292
0.18916174
-0.020763953
0.18839007
-0.020948395
0.18769809
-0.021069586
0.18708109
-0.02113259
0.18653447
-0.021142503
0.18605385
-0.021104404
0.18563503
-0.021023313
0.18527407
-0.020904161
0.18496728
-0.020751767
0.18471124
-0.020570838
0.18450282
-0.020365981
0.18433919
-0.020141733
0.1842178
-0.019902639
0.18413645
-0.019653274
0.18409326
-0.019398668
0.18408674
-0.019143653
0.18411571
-0.01889613
0.18417977
-0.018658626
0.18427802
-0.018458076
0.1844132
-0.018258973
0.18457891
-0.018243507
0.18479706
-0.017973696
0.18500379
-0.018975403
-0.017390585
0.26927496
0.013536957
-0.27130789
0.26710695
0.012058041
0.26476521
0.010270142
0.26232602
0.0085082174
0.2597973
0.0067746261
0.25718923
0.005016085
0.25452795
0.0032399589
0.25183762
0.0014717567
0.24913824
-0.00027503852
0.24644961
-0.0019912344
0.24379103
-0.0036654075
0.24117963
-0.0052858912
0.23863014
-0.0068428319
0.23615505
-0.0083279792
0.23376464
-0.0097343573
0.2314671
-0.011056326
0.22926858
-0.012289606
0.22717351
-0.013431193
0.22518466
-0.014479259
0.22330345
-0.015433061
0.22153004
-0.016292859
0.21986357
-0.017059814
0.21830229
-0.017735893
0.21684375
-0.018323775
0.2154849
-0.018826754
0.21422225
-0.019248645
0.21305199
-0.019593689
0.21197006
-0.019866466
0.21097228
-0.020071812
0.21005443
-0.020214738
0.20921229
-0.020300358
0.20844171
-0.02033383
0.2077387
-0.020320305
0.20709943
-0.020264882
0.20652025
-0.020172589
0.20599778
-0.020048367
0.20552888
-0.019897081
0.20511069
-0.019723546
0.20474066
-0.019532606
0.20441654
-0.019329157
0.20413642
-0.019118552
0.20389882
-0.018906046
0.20370246
-0.01869977
0.20354705
-0.018503222
0.20343114
-0.018342162
0.20335864
-0.018186472
0.20331838
-0.018203247
0.2033436
-0.017998916
0.20332911
-0.018960916
-0.017561109
0.29298566
0.014868079
-0.29431679
0.29150644
0.013537262
0.28978397
0.011992612
0.28788536
0.010406827
0.28584548
0.008814511
0.28367513
0.0071864292
0.28139274
0.0055223509
0.27902154
0.0038429534
0.27658285
0.0021636602
0.27409681
0.00049480435
0.27158363
-0.0011522297
0.26906304
-0.002765299
0.26655335
-0.0043331491
0.26407117
-0.0058457976
0.26163123
-0.0072944165
0.2592463
-0.0086713904
0.25692713
-0.0099704373
0.25468255
-0.01118661
0.25251953
-0.012316243
0.25044336
-0.013356888
0.24845775
-0.01430725
0.24656503
-0.015167097
0.24476631
-0.015937173
0.24306163
-0.016619092
0.24145012
-0.017215243
0.23993016
-0.017728688
0.23849953
-0.018163055
0.2371555
-0.018522445
0.23589502
-0.018811332
0.23471476
-0.019034474
0.23361123
-0.019196831
0.2325809
-0.019303493
0.2316202
-0.019359613
0.23072569
-0.019370363
0.22989399
-0.019340893
0.22912194
-0.019276316
0.22840657
-0.019181707
0.22774514
-0.019062126
0.22713523
-0.018922687
0.22657467
-0.018768597
0.22606163
-0.018605515
0.22559471
-0.018439128
0.22517268
-0.018277739
0.22479539
-0.018125928
0.22446101
-0.018007782
0.2241743
-0.017899771
0.22392045
-0.017949394
0.22374103
-0.01781949
0.22349717
-0.018717057