/*--------------------------------*- C++ -*----------------------------------*\
  =========                 |
  \\      /  F ield         | OpenFOAM: The Open Source CFD Toolbox
   \\    /   O peration     | Website:  https://openfoam.org
    \\  /    A nd           | Version:  6
     \\/     M anipulation  |
\*---------------------------------------------------------------------------*/
FoamFile
{
    version     2.0;
    format      ascii;
    class       volVectorField;
    location    "141";
    object      U;
}
// * * * * * * * * * * * * * * * * * * * * * * * * * * * * * * * * * * * * * //

dimensions      [0 1 -1 0 0 0 0];

internalField   nonuniform List<vector> 
9200
(
(0.0010393768 0.001419966 -5.9202074e-20)
(0.0136762 -0.0020584372 4.6042749e-20)
(0.038313455 -0.0058666916 -3.8501901e-20)
(0.072274925 -0.0097636824 -6.0258002e-20)
(0.11376546 -0.013490261 1.8827053e-20)
(0.16158187 -0.016605946 3.2744022e-20)
(0.21467275 -0.018817629 -1.226807e-20)
(0.27206765 -0.019974291 9.2689101e-21)
(0.33285811 -0.02001168 1.680349e-20)
(0.39616568 -0.018929567 1.4848137e-21)
(0.46111808 -0.016780391 -2.145644e-20)
(0.52683969 -0.013658369 2.0670108e-20)
(0.59245378 -0.0096887018 -4.0422338e-20)
(0.65709466 -0.0050165504 -2.113402e-20)
(0.71992827 0.00020471175 5.9046838e-21)
(0.78017873 0.0058231634 -2.5131835e-20)
(0.83717442 0.011711792 2.5217294e-20)
(0.89047265 0.017917395 2.2243433e-20)
(0.9396746 0.024572191 -2.9925023e-22)
(0.98205572 0.028292064 -1.6691281e-21)
(0.0052522324 -0.001346301 -1.7059421e-20)
(0.026962698 -0.008989126 3.9747884e-20)
(0.061670513 -0.014809926 2.3576398e-20)
(0.10629553 -0.019172488 -1.1569803e-19)
(0.15873657 -0.02221427 -1.2727146e-20)
(0.21753473 -0.023721011 7.3297351e-20)
(0.28137449 -0.023595473 -3.5476545e-20)
(0.34900787 -0.021869392 -8.3905898e-21)
(0.41924139 -0.018646001 3.4287688e-20)
(0.49091195 -0.01408137 -4.3259779e-20)
(0.56287512 -0.0083765343 -3.033864e-20)
(0.63401154 -0.001767237 7.1921851e-20)
(0.7032466 0.0054876871 3.8294267e-20)
(0.7695793 0.013117853 -6.7977e-20)
(0.83211607 0.020851224 1.4623801e-20)
(0.89010406 0.028418759 -3.6733674e-20)
(0.94297287 0.035568632 -1.3777274e-20)
(0.99043597 0.042139742 7.0975424e-20)
(1.0323596 0.047714057 2.9642375e-20)
(1.0669383 0.049138343 -8.3478753e-20)
(0.010858504 -0.004042454 3.6773593e-20)
(0.043953686 -0.0154312 2.5047464e-21)
(0.090515955 -0.022552473 2.2341815e-20)
(0.1471122 -0.026497607 9.811718e-22)
(0.21134366 -0.027886597 -4.0774129e-20)
(0.28146912 -0.02679546 1.8576461e-20)
(0.3558722 -0.023383117 1.3420362e-20)
(0.4329922 -0.017921969 -5.0327915e-20)
(0.51132723 -0.010736126 5.7262117e-20)
(0.58942889 -0.0021844028 1.4256772e-20)
(0.66591217 0.0073473307 -5.430102e-20)
(0.73948359 0.017459629 -1.8237534e-20)
(0.80897937 0.02775586 9.0591436e-21)
(0.87340613 0.037858491 2.3444909e-20)
(0.93197716 0.047423176 -1.1362608e-20)
(0.9841372 0.056148009 2.7877942e-20)
(1.0295775 0.063788106 -2.0188382e-20)
(1.0682679 0.070203215 -7.0124204e-20)
(1.1003354 0.075118089 -2.3796516e-20)
(1.1249142 0.076639848 4.8660118e-20)
(0.017957322 -0.0064222093 2.45081e-20)
(0.064777353 -0.020694939 5.103941e-20)
(0.12485294 -0.028061054 1.9881763e-20)
(0.19447064 -0.030464325 1.2990123e-20)
(0.27095064 -0.029095145 1.7275754e-20)
(0.35225048 -0.024389319 -4.7720348e-20)
(0.43643342 -0.016826348 -2.564696e-20)
(0.52162245 -0.0069770806 0)
(0.60603163 0.0045665835 1.3920724e-20)
(0.68799 0.017211238 -5.8524118e-21)
(0.76597832 0.030373375 -9.7935502e-20)
(0.83867776 0.043499022 -1.5774879e-20)
(0.90501863 0.056085932 6.5103678e-20)
(0.9642191 0.067703364 4.8437069e-22)
(1.0158069 0.078006848 -1.5725687e-21)
(1.0596188 0.086745821 2.1957668e-20)
(1.0957804 0.093771146 -5.264776e-21)
(1.124683 0.099064139 -6.1030223e-20)
(1.1468675 0.10259577 -4.585164e-20)
(1.1622984 0.10341244 6.9520961e-20)
(0.026579562 -0.0082057385 -3.9194302e-21)
(0.08934447 -0.024033651 -5.1256522e-21)
(0.16430833 -0.030265196 5.6599595e-20)
(0.24758236 -0.02981027 1.8539377e-20)
(0.33624314 -0.024513311 -3.1955173e-20)
(0.42795316 -0.01524017 1.2163885e-20)
(0.52047487 -0.0028516985 2.6402976e-21)
(0.61166614 0.011736731 3.3609344e-20)
(0.69954995 0.027639742 5.6599811e-21)
(0.78237141 0.044028323 -1.3204845e-20)
(0.85865724 0.06014722 6.0154486e-20)
(0.92727237 0.075339895 -5.8009694e-20)
(0.98746003 0.0890722 -1.3216705e-19)
(1.0388563 0.10094826 -5.5773442e-21)
(1.0814756 0.11071622 8.3151415e-20)
(1.1156685 0.11826308 0)
(1.1420577 0.12360474 1.0119027e-20)
(1.1614695 0.12688936 -1.5459893e-20)
(1.1748204 0.1282974 -8.5995312e-21)
(1.1826696 0.12744775 2.0992372e-20)
(0.036667087 -0.0090896303 -5.4309179e-21)
(0.11731565 -0.024685497 4.3578877e-21)
(0.20811962 -0.028140369 -8.7630102e-21)
(0.30515836 -0.023415175 2.8472486e-20)
(0.40533712 -0.013075831 -2.9392771e-20)
(0.50607357 0.0015223593 -1.6927092e-20)
(0.60490733 0.019094866 3.7364358e-20)
(0.6995523 0.038364955 4.7595532e-21)
(0.78800684 0.058167308 -2.4436245e-20)
(0.86863712 0.077482615 6.9867972e-20)
(0.94024287 0.095458185 5.238896e-22)
(1.0020987 0.11143102 -8.04449e-20)
(1.05396 0.12494227 0)
(1.0960303 0.13573676 3.954243e-20)
(1.128895 0.14374758 5.5236471e-21)
(1.1534305 0.14906796 -7.7566972e-20)
(1.1707016 0.15191806 -1.9587064e-20)
(1.1818647 0.15262249 -1.2467723e-20)
(1.1880614 0.15152477 -1.4709499e-20)
(1.1901481 0.14858355 4.0420809e-20)
(0.048059085 -0.0087674511 -1.7277997e-20)
(0.14808374 -0.021932114 -2.2198572e-21)
(0.25514177 -0.02079799 3.0380583e-20)
(0.36546534 -0.010412962 3.7484405e-20)
(0.4759061 0.0059014133 -1.9944801e-20)
(0.58374491 0.026269125 -6.9163328e-20)
(0.68644441 0.048977014 -2.7995952e-20)
(0.78176482 0.072417566 7.8929617e-20)
(0.8679049 0.095212211 8.577899e-21)
(0.94359219 0.11624928 -2.4873607e-20)
(1.0081289 0.13469786 1.3642254e-20)
(1.06139 0.15001505 -4.3194952e-21)
(1.1037722 0.16193598 0)
(1.1361002 0.17044355 2.7203666e-20)
(1.1595072 0.17572225 -7.9322955e-20)
(1.1753045 0.17810274 -3.1475744e-20)
(1.1848593 0.17800707 8.1055134e-20)
(1.1894943 0.1759083 -4.2970263e-21)
(1.1904049 0.17225434 3.5561278e-21)
(1.1885099 0.16719166 2.7111775e-20)
(0.060485505 -0.0069574001 -3.2414683e-20)
(0.18077846 -0.015170469 -8.1624553e-20)
(0.30389049 -0.007583629 2.5797443e-21)
(0.4264272 0.0097032582 7.0162051e-20)
(0.54535352 0.032631462 6.2424609e-20)
(0.65798337 0.058819951 -7.1574775e-20)
(0.76191145 0.086176402 -2.8270862e-22)
(0.85518572 0.11285217 8.5523041e-20)
(0.93645637 0.13737818 4.8828339e-20)
(1.0050444 0.15869343 -5.4218749e-20)
(1.0609385 0.17613527 -9.233479e-20)
(1.1047271 0.18941307 -3.1590026e-21)
(1.1374786 0.19855886 4.2128134e-20)
(1.1605899 0.20385787 -6.605672e-21)
(1.1756271 0.20576939 -1.2868867e-20)
(1.1841799 0.20484828 1.9690924e-20)
(1.1877448 0.20167796 4.3880902e-20)
(1.1876473 0.19682478 -4.3859707e-20)
(1.1849972 0.19077766 -1.023227e-19)
(1.1806267 0.18377255 2.4567071e-20)
(0.073537505 -0.0034329943 -3.4979857e-20)
(0.21422769 -0.0039890699 -1.7388648e-19)
(0.35251788 0.011839342 8.2103547e-20)
(0.48562973 0.037018325 9.2767845e-20)
(0.61085592 0.066835558 5.7970775e-20)
(0.72576969 0.098481186 8.6107498e-21)
(0.82835067 0.12959695 -1.0624058e-19)
(0.91719275 0.15824263 0)
(0.99163027 0.18302802 -6.874902e-20)
(1.0517549 0.20311185 -1.5202514e-20)
(1.0983411 0.21814829 5.4703793e-20)
(1.1327034 0.22821039 1.0973449e-20)
(1.1565134 0.23369205 -4.5614128e-20)
(1.1716091 0.23519881 -4.9081652e-20)
(1.1798226 0.23344258 2.4287836e-20)
(1.1828471 0.22915237 4.4823179e-20)
(1.1821508 0.22300891 -5.5600761e-20)
(1.1789379 0.21560719 -1.0751189e-19)
(1.1741486 0.20742114 -3.1513614e-21)
(1.1684584 0.19871765 2.7046568e-20)
(0.086650768 0.0019613855 -3.5449355e-21)
(0.24696107 0.011816646 8.7913493e-20)
(0.39884879 0.037492358 -1.647913e-20)
(0.54040648 0.071218469 -8.430952e-20)
(0.6695012 0.10778904 4.5164561e-20)
(0.78422197 0.14411555 4.9175612e-20)
(0.88319201 0.17775677 5.5357068e-21)
(0.9657814 0.20688493 -9.9502999e-20)
(1.032179 0.23038797 -2.504892e-21)
(1.0833355 0.24781538 5.0503838e-20)
(1.1208095 0.25926274 5.985511e-21)
(1.1465582 0.26523581 -1.9717326e-20)
(1.162713 0.26650483 -7.5705064e-20)
(1.1713786 0.26396561 -6.2554294e-21)
(1.1744782 0.25852358 4.3533598e-20)
(1.1736567 0.25101008 3.7022219e-20)
(1.1702401 0.24213307 1.9793537e-20)
(1.165242 0.2324578 -5.2995205e-20)
(1.159403 0.22240317 1.2957463e-20)
(1.1532267 0.21223693 8.2659564e-20)
(-0.0012932677 0.0014346671 -1.1234297e-21)
(-0.0047459824 0.0031874293 2.0647055e-21)
(-0.010771407 0.0041359217 8.7957248e-22)
(-0.017754364 0.0045395542 -2.4411264e-21)
(-0.02474042 0.0045654337 -1.4115004e-21)
(-0.031299718 0.0043260533 1.5459842e-21)
(-0.037161469 0.0039035495 -6.87015e-21)
(-0.042147595 0.0033577291 -5.9573186e-21)
(-0.046157933 0.0027313842 1.1172086e-20)
(-0.049146345 0.0020548288 -9.7428264e-21)
(-0.0511008 0.0013492935 -1.9832349e-22)
(-0.052030573 0.00062940964 3.6673826e-21)
(-0.051957843 -9.4907468e-05 -6.3295768e-22)
(-0.050911956 -0.00081695442 2.2818941e-20)
(-0.048925813 -0.0015318751 3.0400872e-22)
(-0.046035328 -0.0022352112 -4.0883249e-20)
(-0.042281728 -0.0029223124 7.5386402e-21)
(-0.037703308 -0.0035910905 2.3864339e-20)
(-0.032308485 -0.0042400465 -4.3852811e-20)
(-0.02615667 -0.0048211812 -2.7739488e-20)
(-0.0016522076 0.0041808863 -5.3716456e-21)
(-0.0053975049 0.0092681792 1.0865485e-20)
(-0.011218556 0.012007494 -1.0191629e-20)
(-0.017658096 0.013153815 3.9230289e-21)
(-0.023856523 0.01319546 4.812199e-21)
(-0.029433423 0.012462764 7.1324859e-22)
(-0.034152434 0.011197044 -2.2509681e-20)
(-0.037860493 0.0095739149 -2.0370437e-21)
(-0.040474407 0.007718992 2.0163709e-20)
(-0.041959017 0.0057212209 -5.0474009e-21)
(-0.042309022 0.0036428397 -2.1762771e-20)
(-0.041537379 0.0015266718 4.8973572e-21)
(-0.039667715 -0.00059836349 2.2635598e-20)
(-0.036729034 -0.0027128371 1.0308479e-20)
(-0.032751929 -0.0048027844 2.1854485e-20)
(-0.027768997 -0.0068556241 -1.9770906e-20)
(-0.021824543 -0.0088583568 -2.167314e-20)
(-0.014965929 -0.010804385 2.1184831e-20)
(-0.0071285751 -0.012679185 2.6810623e-20)
(0.0018748538 -0.014317431 1.5854907e-20)
(-0.0023034392 0.0065602628 -4.3568967e-21)
(-0.0065392501 0.014480257 -5.6387761e-21)
(-0.011892175 0.018710618 3.072388e-22)
(-0.017211157 0.020428256 1.0959816e-21)
(-0.021819208 0.020400392 6.6918898e-21)
(-0.025431108 0.019151721 1.0665247e-20)
(-0.02787729 0.017066326 -3.722795e-21)
(-0.029053311 0.014423802 -1.8896313e-20)
(-0.028909051 0.011424349 6.5413693e-21)
(-0.027431028 0.0082098779 1.2862671e-20)
(-0.024627645 0.0048797233 5.8341392e-21)
(-0.020519982 0.0015021589 1.8159242e-20)
(-0.01513579 -0.0018769716 1.7296054e-21)
(-0.0085051219 -0.0052273863 -3.3864797e-20)
(-0.00065652281 -0.0085277806 1.2020382e-21)
(0.0083814929 -0.011759314 -2.2139377e-20)
(0.018557462 -0.014904337 -2.4466534e-20)
(0.029802907 -0.017954031 4.5820143e-20)
(0.042305838 -0.020855435 2.5349602e-20)
(0.056739615 -0.023248123 1.2241404e-22)
(-0.0031290402 0.0083690063 -5.2833383e-21)
(-0.0078964269 0.018336586 -8.481595e-21)
(-0.012439023 0.023587897 4.3593263e-21)
(-0.016026573 0.025609746 4.14637e-21)
(-0.018235053 0.025382821 2.0105807e-21)
(-0.01891266 0.023589379 7.3210538e-21)
(-0.017984695 0.020730306 9.3125495e-21)
(-0.015416645 0.017170383 -1.3511486e-21)
(-0.011206927 0.013171288 -1.1482033e-20)
(-0.0053750458 0.0089188723 -2.9072092e-20)
(0.0020483799 0.0045433422 6.1895371e-23)
(0.011026871 0.00013417827 4.0698121e-20)
(0.021522696 -0.0042491236 -1.8383299e-20)
(0.033498445 -0.0085677996 -1.2296181e-20)
(0.046921244 -0.012795805 5.5348074e-22)
(0.06176098 -0.016912161 3.2302909e-20)
(0.077954067 -0.020902026 -1.4829691e-20)
(0.095393503 -0.024763784 -5.3339627e-20)
(0.11439989 -0.028380182 4.5765391e-20)
(0.13634706 -0.031073612 3.3013453e-20)
(-0.003970424 0.0094657704 -6.8788914e-22)
(-0.0090916852 0.020487867 -1.25348e-20)
(-0.012364496 0.026159174 -3.4144719e-20)
(-0.013552549 0.028143421 -5.7242042e-21)
(-0.012533218 0.027555073 -3.6222778e-21)
(-0.0093166574 0.025188106 6.3051473e-21)
(-0.0039455178 0.021627422 -4.6462372e-21)
(0.0035263301 0.017298934 -8.807097e-21)
(0.013037113 0.012508687 2.1899856e-20)
(0.02452164 0.0074743346 5.0567404e-21)
(0.037916059 0.0023487505 -2.529047e-20)
(0.053158104 -0.0027629857 1.1078349e-20)
(0.070187681 -0.0077911267 0)
(0.088947567 -0.012691608 1.208966e-20)
(0.10938661 -0.01743728 -9.7016873e-21)
(0.13145879 -0.022010317 -1.4337232e-20)
(0.15507567 -0.026409128 -1.5738731e-21)
(0.18006944 -0.030659969 -2.2181858e-21)
(0.20685551 -0.034577151 4.6147386e-20)
(0.23766598 -0.037020553 -1.0470258e-20)
(-0.0046451125 0.0097808979 -7.5357001e-21)
(-0.0096772726 0.020747947 2.4516523e-20)
(-0.011064386 0.026161051 -1.0499405e-20)
(-0.0090968009 0.027724508 -2.7469418e-20)
(-0.0039796328 0.026601735 -2.7548264e-20)
(0.0040963457 0.023648417 -1.492165e-20)
(0.014954405 0.019496427 -6.9060856e-22)
(0.028436603 0.014604631 5.5500167e-21)
(0.044403645 0.0093033248 1.9615997e-20)
(0.062731142 0.0038282425 7.3531288e-21)
(0.083305128 -0.0016549823 -7.1862626e-21)
(0.10601997 -0.0070325229 -2.0102364e-21)
(0.13077477 -0.012229442 -3.8191951e-20)
(0.15747086 -0.017200159 -1.2693726e-20)
(0.18601366 -0.021920207 1.8750748e-20)
(0.21631368 -0.026380258 -2.1021831e-20)
(0.24823441 -0.030602835 -8.9731219e-21)
(0.28152113 -0.034671295 3.0440656e-20)
(0.31660979 -0.038365587 5.0472407e-20)
(0.35665322 -0.039964946 3.3559937e-21)
(-0.0049617809 0.0093140278 1.678337e-20)
(-0.0091662791 0.019097758 1.4467994e-20)
(-0.0078593401 0.023563413 5.1145715e-20)
(-0.0018584533 0.024328972 2.33881e-20)
(0.0082958944 0.022523781 1.8251877e-22)
(0.02222222 0.019014344 -3.9388667e-20)
(0.039597851 0.014440849 -2.4313978e-20)
(0.060148464 0.0092662223 1.0465873e-20)
(0.083639848 0.0038230363 1.4401662e-20)
(0.10986761 -0.0016515491 -1.3113776e-20)
(0.13864676 -0.0069913207 -4.4038958e-20)
(0.16980307 -0.012083222 2.9618667e-20)
(0.20316566 -0.016854601 2.0020659e-20)
(0.23856133 -0.021264506 -2.755132e-20)
(0.27581445 -0.025296986 1.1650212e-20)
(0.31475055 -0.028957825 2.4197765e-20)
(0.35514819 -0.032303787 8.072453e-21)
(0.3966369 -0.035507491 -1.1764305e-20)
(0.43958034 -0.038393543 -1.4190366e-20)
(0.48798873 -0.038635389 5.872876e-21)
(-0.0047307836 0.008123693 1.1093895e-20)
(-0.0070585901 0.0156712 -2.3352847e-20)
(-0.0020292986 0.018562042 8.6200708e-21)
(0.0090326769 0.018216207 3.3588132e-20)
(0.025256636 0.015651094 5.2124566e-20)
(0.046066756 0.011695501 2.0276604e-20)
(0.07098511 0.0069607991 -5.863962e-21)
(0.099602728 0.001882742 -1.228634e-20)
(0.13156994 -0.003227467 -6.2057795e-21)
(0.1665769 -0.0081499889 3.4241002e-20)
(0.20433573 -0.012733717 -4.5104708e-21)
(0.24456659 -0.016879652 -1.6643393e-20)
(0.28698673 -0.020529221 -1.9693672e-20)
(0.3313023 -0.023657019 -4.7444007e-20)
(0.3772072 -0.026266215 2.3238837e-20)
(0.42439062 -0.02838862 -1.4096071e-20)
(0.47250295 -0.030128458 2.5993577e-20)
(0.52103967 -0.031784107 2.1040962e-20)
(0.57021771 -0.033351681 -8.5570827e-20)
(0.62471318 -0.032059934 -1.0804639e-22)
(-0.0037710507 0.006314648 2.1925144e-20)
(-0.0028657262 0.010735089 -2.6165662e-20)
(0.0071422291 0.011564103 -4.501349e-20)
(0.024450478 0.009924919 -2.7253907e-20)
(0.04787125 0.0066521898 -2.0439963e-21)
(0.076629284 0.0024904496 1.3050152e-20)
(0.11007752 -0.0020156185 -2.8337788e-21)
(0.14765308 -0.0064881862 1.8118614e-20)
(0.18886223 -0.010663847 8.8685961e-21)
(0.2332535 -0.014362829 -1.1380222e-20)
(0.28039332 -0.017469423 8.8779659e-21)
(0.32984816 -0.019917347 -2.3903384e-20)
(0.38117124 -0.02167931 8.0505286e-21)
(0.43389358 -0.02276056 1.6756486e-20)
(0.48752238 -0.023195061 -2.6395267e-21)
(0.54155047 -0.023047729 1.6619048e-21)
(0.59543903 -0.022470362 -3.1956903e-22)
(0.64852164 -0.021871102 1.9590543e-20)
(0.70082641 -0.021446144 4.0434242e-21)
(0.75745568 -0.018500254 -5.7347417e-22)
(-0.0019110007 0.0040273445 2.3692222e-20)
(0.0038695103 0.0046764821 5.7160242e-20)
(0.020315507 0.0031878859 -4.9244438e-20)
(0.045178639 0.00029430146 -9.9454599e-21)
(0.076965697 -0.0034243277 2.0256431e-20)
(0.11469699 -0.0073538164 2.1433806e-21)
(0.15753984 -0.011055244 -2.9815281e-20)
(0.20474959 -0.014244485 6.9848331e-21)
(0.25565107 -0.016738335 7.1098259e-21)
(0.3096066 -0.018427425 -2.6254197e-20)
(0.36598866 -0.01926063 1.2927407e-21)
(0.42416207 -0.019232465 -3.7174298e-20)
(0.48347381 -0.018372869 -3.6341208e-20)
(0.54324873 -0.016739014 6.5683858e-20)
(0.60279147 -0.014408115 5.5627835e-21)
(0.66139243 -0.01147679 -1.5188912e-20)
(0.71831163 -0.0081030206 1.9364082e-20)
(0.77270296 -0.0045939276 -9.1888704e-22)
(0.82409241 -0.00096920093 2.0364636e-20)
(0.87622379 0.0043268192 -1.9554341e-20)
(-0.018836023 -0.0050997759 5.8352661e-20)
(-0.010224134 -0.005635007 1.5783822e-20)
(-0.00022052833 -0.0060689675 -3.5139927e-20)
(0.010824057 -0.0063342036 1.6790434e-20)
(0.022643478 -0.006512147 0)
(0.035179097 -0.0066301959 0)
(0.048371093 -0.006691085 -2.2975226e-20)
(0.062139747 -0.0067026569 -1.6503071e-20)
(0.076414649 -0.0066742966 1.9122853e-20)
(0.091136292 -0.006612793 1.8174281e-20)
(0.1062497 -0.0065233379 1.0524356e-21)
(0.12170307 -0.0064104948 -1.0317772e-20)
(0.13744811 -0.0062782225 8.3270211e-21)
(0.1534396 -0.0061298681 1.8233969e-20)
(0.16963477 -0.005968295 -5.2275245e-21)
(0.18599298 -0.0057959887 -1.0175079e-20)
(0.20247547 -0.0056151203 -4.3196489e-21)
(0.21904522 -0.0054275988 -4.4257883e-21)
(0.23566682 -0.0052351165 7.3667719e-22)
(0.25230638 -0.0050391835 1.2286274e-21)
(0.26893157 -0.0048411552 2.5666988e-21)
(0.28551162 -0.0046422511 6.654078e-21)
(0.30201734 -0.0044435707 2.4891643e-22)
(0.31842119 -0.0042461034 -3.451552e-21)
(0.33469733 -0.0040507368 1.5558336e-22)
(0.35082171 -0.0038582627 -5.7711379e-22)
(0.36677206 -0.0036693809 1.243474e-21)
(0.38252799 -0.003484704 1.0522625e-21)
(0.39807098 -0.0033047605 -1.2988739e-21)
(0.41338441 -0.0031299987 -1.2218376e-22)
(0.42845356 -0.0029607905 3.5703821e-23)
(0.4432656 -0.0027974361 -3.5189587e-22)
(0.45780953 -0.0026401685 -4.0570474e-22)
(0.47207617 -0.0024891592 5.5447684e-23)
(0.48605813 -0.0023445234 -1.3810356e-22)
(0.49974972 -0.0022063267 -2.2345092e-22)
(0.51314695 -0.0020745914 2.5574766e-22)
(0.52624749 -0.0019493031 2.9505926e-22)
(0.53905055 -0.0018304202 -8.2981365e-24)
(0.55155729 -0.0017178776 -1.5524288e-22)
(0.56376968 -0.0016116146 3.0406208e-23)
(0.57569437 -0.0015115311 -4.0152877e-23)
(0.58733154 -0.0014176987 9.2260856e-23)
(0.5987103 -0.0013297812 2.1964883e-23)
(0.60978497 -0.0012490641 -1.1410633e-22)
(0.62074791 -0.0011723357 -6.7745107e-24)
(0.63112079 -0.0011118359 -6.509555e-26)
(0.64241644 -0.0010345826 -3.5829397e-24)
(0.65049833 -0.0010515203 2.9447494e-23)
(0.6670939 -0.00087637316 3.6070274e-22)
(0.010446557 -0.015017833 -1.2746971e-20)
(0.018180517 -0.016641259 -6.3302984e-20)
(0.027780188 -0.017915683 -3.0542298e-20)
(0.038386291 -0.018672361 3.8476456e-20)
(0.049622321 -0.019183896 1.4662786e-20)
(0.06150817 -0.019529758 -1.8205174e-20)
(0.074014587 -0.019710208 4.6722924e-21)
(0.08706468 -0.019746852 2.5447504e-20)
(0.10059542 -0.019667656 9.1963126e-23)
(0.11455657 -0.019492091 -7.6592424e-21)
(0.12890004 -0.019234765 -1.3021145e-20)
(0.14357921 -0.018908731 -8.5246804e-21)
(0.15855019 -0.018525405 1.7772583e-20)
(0.17377148 -0.018094447 8.9297763e-21)
(0.18920332 -0.017624138 -1.6522626e-20)
(0.20480752 -0.017121703 -6.039148e-21)
(0.22054736 -0.016593481 3.2145374e-21)
(0.23638746 -0.016045067 8.3717349e-21)
(0.25229377 -0.015481441 6.9833581e-21)
(0.26823353 -0.014907063 -6.9728995e-21)
(0.28417532 -0.014325949 -3.1686848e-21)
(0.30008912 -0.013741723 1.3606355e-21)
(0.31594635 -0.013157662 3.8693126e-22)
(0.33171996 -0.01257672 1.2114489e-21)
(0.34738448 -0.012001554 1.8371186e-22)
(0.36291614 -0.011434537 -3.2665007e-22)
(0.37829286 -0.010877773 -7.2439538e-22)
(0.39349437 -0.010333106 9.716686e-22)
(0.40850219 -0.0098021294 8.2490642e-22)
(0.42329968 -0.0092862003 -1.5155277e-22)
(0.43787201 -0.0087864472 5.5313417e-22)
(0.4522062 -0.0083037847 -2.3882279e-22)
(0.46629103 -0.0078389278 -3.7077083e-22)
(0.4801171 -0.0073924069 -6.100819e-22)
(0.49367668 -0.0069645854 4.417598e-22)
(0.50696376 -0.0065556773 -1.5561202e-23)
(0.51997397 -0.0061657679 1.6133656e-22)
(0.53270456 -0.0057948324 -4.4188817e-22)
(0.54515432 -0.0054427647 3.7208844e-22)
(0.55732394 -0.005109387 6.719454e-23)
(0.56921493 -0.0047945352 -1.0285773e-22)
(0.58083343 -0.0044979262 1.7627963e-22)
(0.59217919 -0.0042197905 2.3362247e-22)
(0.60328056 -0.0039591385 1.6946769e-22)
(0.61409205 -0.0037198213 1.6792693e-22)
(0.62480314 -0.0034922759 -2.6146617e-23)
(0.6349419 -0.003312981 8.4296469e-23)
(0.64599818 -0.0030837663 7.6545675e-23)
(0.65390053 -0.003134493 -1.9502792e-22)
(0.67017708 -0.0026148679 -3.7983449e-23)
(0.067615898 -0.024029528 9.4529371e-21)
(0.073591016 -0.026749467 3.2951582e-21)
(0.082267014 -0.028806022 -1.2162401e-20)
(0.091949508 -0.029968988 -1.2258337e-21)
(0.10198509 -0.030768376 1.4970794e-20)
(0.11254843 -0.031331432 -1.4887303e-20)
(0.12367829 -0.031636638 -2.9842677e-20)
(0.13529938 -0.031713599 1.4493743e-20)
(0.14735979 -0.031608255 1.8182242e-20)
(0.15982654 -0.031350699 -1.1598696e-20)
(0.17266402 -0.030962487 1.0190695e-21)
(0.18583457 -0.030463443 8.6860738e-21)
(0.19930194 -0.029871263 -1.5253808e-20)
(0.21303104 -0.029200972 2.9097044e-21)
(0.22698731 -0.028465515 7.5195949e-21)
(0.24113671 -0.02767628 3.1487013e-23)
(0.25544591 -0.026843355 2.6549427e-22)
(0.26988231 -0.025975714 -7.4152739e-21)
(0.28441408 -0.025081403 3.861905e-21)
(0.2990103 -0.024167679 8.475144e-21)
(0.31364104 -0.023241116 -3.8352883e-21)
(0.32827745 -0.022307679 -2.2130836e-21)
(0.34289191 -0.021372785 1.0124305e-21)
(0.35745811 -0.020441342 -1.715613e-21)
(0.37195116 -0.019517776 1.3532599e-21)
(0.38634768 -0.018606058 7.1847932e-22)
(0.40062586 -0.017709718 1.5270412e-21)
(0.41476553 -0.016831861 -1.9528815e-21)
(0.42874822 -0.015975183 2.2238408e-21)
(0.44255715 -0.015141988 5.5194862e-22)
(0.45617729 -0.014334204 4.0339121e-22)
(0.46959531 -0.013553405 3.2136293e-22)
(0.48279958 -0.012800838 8.734523e-22)
(0.49578018 -0.01207744 -1.3711863e-21)
(0.50852881 -0.011383873 3.7076476e-22)
(0.52103879 -0.010720552 1.0952836e-22)
(0.53330504 -0.010087676 -4.5213083e-23)
(0.54532405 -0.009485262 8.6688089e-23)
(0.55709379 -0.0089131907 -3.7199601e-22)
(0.5686141 -0.0083712228 1.83046e-22)
(0.57988562 -0.0078591407 -3.4998347e-23)
(0.59091351 -0.0073765272 3.904211e-22)
(0.60169674 -0.006923814 -1.8564194e-22)
(0.61226227 -0.0064994127 4.7359793e-23)
(0.62256493 -0.0061097213 4.3675575e-23)
(0.63278878 -0.0057390396 -7.3729362e-23)
(0.64247406 -0.0054473571 -1.2116548e-22)
(0.65306665 -0.0050736623 3.8896794e-22)
(0.66062062 -0.0051578049 1.7303253e-22)
(0.6762788 -0.0043110503 -8.3084462e-22)
(0.15021717 -0.03146098 1.5010452e-21)
(0.15354892 -0.03525799 -1.1566694e-20)
(0.16061843 -0.038011561 6.6442308e-21)
(0.16880829 -0.039479778 -1.3324887e-20)
(0.17698483 -0.040521406 -1.9758536e-21)
(0.18552627 -0.041303034 9.1600868e-21)
(0.19458724 -0.041758026 -9.7664143e-21)
(0.2040902 -0.041914534 1.5662387e-21)
(0.21399123 -0.041834188 1.2903969e-20)
(0.22427982 -0.041555226 3.4032879e-21)
(0.23493667 -0.041102967 -6.209782e-21)
(0.24593467 -0.040501402 -2.8638959e-21)
(0.25724639 -0.039772732 -5.8409232e-21)
(0.26884429 -0.038936068 -6.4554546e-21)
(0.28069979 -0.038008017 3.2356479e-21)
(0.29278361 -0.037003373 8.4610531e-22)
(0.30506617 -0.035935425 1.3680261e-21)
(0.31751789 -0.034816151 -3.3851012e-21)
(0.33010936 -0.033656407 -4.2430577e-21)
(0.34281156 -0.032466084 2.3617468e-21)
(0.35559608 -0.031254216 3.225301e-21)
(0.36843525 -0.030029067 -1.5637514e-21)
(0.38130237 -0.028798187 1.5868086e-21)
(0.3941718 -0.027568454 -3.9129876e-22)
(0.40701913 -0.026346103 -3.9199452e-21)
(0.41982125 -0.025136753 -3.0334223e-21)
(0.4325565 -0.023945422 -1.9032132e-22)
(0.44520468 -0.022776542 4.28553e-22)
(0.45774715 -0.021633985 -2.2107393e-21)
(0.47016684 -0.020521078 -8.5515936e-22)
(0.48244828 -0.019440628 2.2838758e-22)
(0.4945776 -0.01839495 -1.2500872e-21)
(0.50654253 -0.0173859 6.2134555e-24)
(0.51833239 -0.016414908 -4.2433047e-22)
(0.52993805 -0.015483017 -4.7198186e-22)
(0.54135191 -0.014590924 -5.2019842e-22)
(0.55256787 -0.013739027 -8.4170763e-22)
(0.56358138 -0.012927464 -5.4470269e-23)
(0.5743893 -0.012156185 -3.9168465e-24)
(0.58499029 -0.011424969 -5.2001531e-22)
(0.5953838 -0.010733619 -9.1575004e-23)
(0.60557372 -0.010081662 -3.3267091e-22)
(0.61555791 -0.0094697932 -4.3807713e-22)
(0.62536144 -0.0088959145 3.7885224e-22)
(0.63493964 -0.0083689237 1.483883e-23)
(0.64446893 -0.0078673571 1.826808e-22)
(0.65350704 -0.0074734558 -1.3283356e-22)
(0.66343666 -0.0069673624 -2.6748614e-22)
(0.67049268 -0.0070841202 -4.4369078e-23)
(0.685264 -0.0059383125 4.6256946e-22)
(0.25468827 -0.03655348 -2.0900541e-20)
(0.25447295 -0.04139428 4.7586383e-20)
(0.25907625 -0.04474648 1.0348181e-20)
(0.26508724 -0.046442911 -1.5765486e-20)
(0.27071264 -0.047715226 -2.0228521e-21)
(0.27652347 -0.04874873 2.6232173e-21)
(0.28283925 -0.049414715 -1.6608798e-21)
(0.2895809 -0.049729138 -4.6861989e-21)
(0.29670083 -0.04976251 -4.0159683e-21)
(0.30421 -0.049558171 -1.2207802e-20)
(0.31210701 -0.049142845 1.7898074e-20)
(0.32037451 -0.048541998 6.5221354e-21)
(0.32899247 -0.047780198 -1.6780771e-20)
(0.33793985 -0.046879289 1.0317629e-20)
(0.34719328 -0.045858607 8.3850131e-21)
(0.35672735 -0.044735655 -8.7913963e-22)
(0.36651548 -0.043526446 -3.1221962e-21)
(0.37653038 -0.042245663 -3.8199123e-21)
(0.38674439 -0.040906812 -1.389341e-21)
(0.3971298 -0.039522344 -1.2304982e-21)
(0.40765914 -0.038103752 -3.0259392e-21)
(0.41830544 -0.036661642 0)
(0.42904241 -0.03520577 -1.3452848e-21)
(0.43984469 -0.033745084 3.9311004e-21)
(0.45068792 -0.032287739 5.4055849e-21)
(0.46154895 -0.030841118 -9.4114934e-22)
(0.47240588 -0.029411848 -2.9277599e-21)
(0.48323818 -0.028005817 3.0262298e-21)
(0.49402674 -0.026628192 2.5436992e-22)
(0.50475393 -0.025283447 3.4356923e-21)
(0.51540357 -0.023975388 -5.3462287e-22)
(0.52596101 -0.022707191 1.717565e-21)
(0.53641311 -0.02148144 -7.9980976e-22)
(0.5467482 -0.020300171 2.9107371e-22)
(0.55695607 -0.01916492 -4.3419046e-22)
(0.56702801 -0.018076779 5.624344e-22)
(0.57695671 -0.017036448 4.5726696e-22)
(0.58673634 -0.016044299 3.8271636e-22)
(0.59636245 -0.015100448 -9.5979888e-22)
(0.60583233 -0.014204794 6.8391364e-22)
(0.61514406 -0.01335726 -3.6978607e-22)
(0.6243 -0.012557407 -1.1041689e-21)
(0.63329678 -0.011806272 1.409072e-21)
(0.64215718 -0.01110136 -6.2055575e-23)
(0.65083735 -0.010453994 -1.5836261e-22)
(0.6595041 -0.0098374495 -7.8373511e-24)
(0.66773743 -0.0093545024 -1.265613e-22)
(0.67684023 -0.0087318407 -4.6672722e-22)
(0.68327604 -0.0088799984 8.7861845e-22)
(0.69693571 -0.0074720817 -4.4349095e-23)
(0.37635458 -0.03836906 -1.7495294e-20)
(0.37171321 -0.044271174 1.2832143e-20)
(0.37287051 -0.048162611 2.9755387e-21)
(0.37591426 -0.050099899 -7.6354531e-21)
(0.37830927 -0.051671068 1.2056113e-20)
(0.38072715 -0.053043519 7.7915006e-21)
(0.38368045 -0.054031234 -1.2647799e-20)
(0.38710526 -0.054634345 -6.0680502e-21)
(0.39093417 -0.054919293 1.26975e-20)
(0.39518764 -0.054928469 -1.5305265e-20)
(0.39987975 -0.054688895 -1.4063378e-20)
(0.40500087 -0.054226077 1.4129949e-20)
(0.41053475 -0.053565127 6.8194872e-21)
(0.41646365 -0.05272946 -4.2039952e-21)
(0.42276699 -0.051740571 -1.8544838e-21)
(0.42942127 -0.050618347 -4.0581291e-21)
(0.43640113 -0.049381343 5.3047278e-21)
(0.44368005 -0.048046912 3.668273e-21)
(0.45123081 -0.046631278 -3.2408576e-21)
(0.45902586 -0.045149591 3.1380068e-21)
(0.46703769 -0.043615983 2.7667998e-21)
(0.4752391 -0.042043601 -3.2112474e-21)
(0.48360349 -0.040444629 3.7057463e-22)
(0.49210502 -0.0388303 -3.2572392e-21)
(0.50071881 -0.037210908 7.2460411e-21)
(0.50942106 -0.035595813 6.1084855e-21)
(0.51818918 -0.033993456 8.0987908e-22)
(0.52700185 -0.032411373 -1.7684498e-21)
(0.53583911 -0.030856214 3.7027044e-21)
(0.54468239 -0.029333776 7.1895136e-21)
(0.55351454 -0.027849032 2.3051687e-21)
(0.56231985 -0.026406177 3.3170445e-21)
(0.57108403 -0.025008673 1.9959324e-21)
(0.57979424 -0.023659308 7.4575122e-22)
(0.58843905 -0.02236025 -2.6376955e-22)
(0.59700842 -0.021113116 2.7210759e-21)
(0.60549373 -0.019919039 6.2011115e-22)
(0.61388775 -0.018778739 2.9496977e-22)
(0.62218461 -0.017692623 5.624941e-23)
(0.63038014 -0.016660817 9.9020962e-22)
(0.63847096 -0.01568347 4.7036206e-23)
(0.64645785 -0.014760285 4.4281789e-22)
(0.65433612 -0.013892718 -1.2630253e-22)
(0.66212609 -0.013078004 -2.7765062e-22)
(0.66978501 -0.012329789 -1.5236907e-22)
(0.67746865 -0.011616678 -4.226887e-22)
(0.68478326 -0.011059915 1.6178878e-22)
(0.69293835 -0.010339169 -1.2745395e-22)
(0.69866515 -0.010517152 -5.0112088e-22)
(0.71104156 -0.0088904666 2.4605794e-22)
(0.50927813 -0.035975325 3.6471293e-21)
(0.49953437 -0.04296176 -1.8958423e-20)
(0.4962797 -0.047384612 -2.3084158e-21)
(0.49556024 -0.04973797 5.486997e-21)
(0.49417404 -0.051819288 3.0528681e-21)
(0.49270045 -0.053706707 -4.9832686e-23)
(0.49181722 -0.055188999 6.1898017e-21)
(0.49151967 -0.056266801 7.6252099e-21)
(0.49171707 -0.056991987 9.8581425e-21)
(0.49241639 -0.057397079 -1.1250206e-20)
(0.49363698 -0.057507856 -2.1579789e-20)
(0.49537401 -0.057350022 -3.9354689e-21)
(0.49761122 -0.056948784 1.5938441e-20)
(0.5003299 -0.056328712 1.2809199e-20)
(0.5035089 -0.055513484 -5.9067326e-21)
(0.50712414 -0.054525646 1.3816232e-21)
(0.51114942 -0.053386633 -3.6602529e-21)
(0.5155572 -0.052116838 2.2446147e-21)
(0.5203192 -0.050735597 -2.9123569e-22)
(0.52540674 -0.049261168 -1.8654735e-21)
(0.53079118 -0.047710719 7.8269553e-21)
(0.53644413 -0.046100326 -2.9315885e-22)
(0.54233779 -0.044444966 4.1825622e-22)
(0.54844512 -0.042758505 -6.5641283e-22)
(0.55474002 -0.041053695 -4.3031652e-21)
(0.56119746 -0.039342174 4.2087584e-21)
(0.5677936 -0.037634475 1.9031761e-21)
(0.57450588 -0.035940038 -3.3084203e-21)
(0.58131307 -0.034267237 -4.1118567e-21)