/*--------------------------------*- C++ -*----------------------------------*\
  =========                 |
  \\      /  F ield         | OpenFOAM: The Open Source CFD Toolbox
   \\    /   O peration     | Website:  https://openfoam.org
    \\  /    A nd           | Version:  6
     \\/     M anipulation  |
\*---------------------------------------------------------------------------*/
FoamFile
{
    version     2.0;
    format      ascii;
    class       volVectorField;
    location    "141";
    object      UMean;
}
// * * * * * * * * * * * * * * * * * * * * * * * * * * * * * * * * * * * * * //

dimensions      [0 1 -1 0 0 0 0];

internalField   nonuniform List<vector> 
9200
(
(0.0020174193 0.00067173642 -6.1782829e-20)
(0.0169277 -0.0044161431 4.9447324e-20)
(0.044044639 -0.0096028773 -4.0543815e-20)
(0.080632785 -0.014692267 -6.4575718e-20)
(0.12476292 -0.01948451 1.9994122e-20)
(0.17515076 -0.023548805 3.5104519e-20)
(0.23067489 -0.026601729 -1.3118815e-20)
(0.29029897 -0.028506003 9.9301449e-21)
(0.35305507 -0.029210996 1.8411789e-20)
(0.41801263 -0.028729129 1.6275363e-21)
(0.48425554 -0.027124613 -2.360234e-20)
(0.55087429 -0.02450238 2.2657315e-20)
(0.61697003 -0.020997011 -4.4177828e-20)
(0.68166829 -0.016761544 -2.3271167e-20)
(0.74414055 -0.011955637 6.5033715e-21)
(0.80363084 -0.0067358615 -2.7777815e-20)
(0.85950015 -0.0012329647 2.7931305e-20)
(0.91134679 0.004592909 2.4846075e-20)
(0.95882654 0.010868844 -2.4152177e-22)
(0.99933681 0.014304407 -1.5563983e-21)
(0.0065165674 -0.0021883874 -1.7797193e-20)
(0.030977705 -0.011536978 4.2400493e-20)
(0.068552286 -0.018758089 2.4498665e-20)
(0.1160935 -0.024290425 -1.229695e-19)
(0.17136746 -0.028346423 -1.342994e-20)
(0.23282885 -0.030733232 7.8548228e-20)
(0.29908684 -0.03137334 -3.8010527e-20)
(0.36882486 -0.030320321 -9.087074e-21)
(0.44079085 -0.027697382 3.720429e-20)
(0.51377524 -0.023678029 -4.7088504e-20)
(0.586601 -0.018478256 -3.3292095e-20)
(0.65813211 -0.012345999 7.9092258e-20)
(0.72729468 -0.0055491622 4.1976744e-20)
(0.79310632 0.0016361501 -7.4697276e-20)
(0.85470919 0.0089356436 1.606933e-20)
(0.91140108 0.016081508 -4.0372514e-20)
(0.96267333 0.022826031 -1.5363328e-20)
(1.0083057 0.029013615 7.7897424e-20)
(1.048235 0.034245241 3.3680934e-20)
(1.0807675 0.035459911 -8.6067127e-20)
(0.012431424 -0.0049418652 3.7856183e-20)
(0.048767385 -0.018065046 2.2383657e-21)
(0.098567402 -0.026554595 2.2879718e-20)
(0.1583291 -0.03160537 1.0365185e-21)
(0.22552549 -0.033926768 -4.2466389e-20)
(0.29832689 -0.033628301 2.0067764e-20)
(0.37504111 -0.030898828 1.3995926e-20)
(0.45404275 -0.026040341 -5.4001158e-20)
(0.53378068 -0.019402346 6.1844305e-20)
(0.61277565 -0.011364225 1.5858627e-20)
(0.68963221 -0.0023276013 -5.9394689e-20)
(0.76306802 0.0072974014 -2.0125254e-20)
(0.8319519 0.017108692 9.4628453e-21)
(0.89534254 0.026728321 2.5615428e-20)
(0.95252115 0.035816073 -1.2370799e-20)
(1.0030114 0.044077951 3.0348705e-20)
(1.0465888 0.051279523 -2.2106525e-20)
(1.0833062 0.057292356 -7.5728048e-20)
(1.1133691 0.061860189 -2.464201e-20)
(1.1360018 0.06313925 5.1672918e-20)
(0.019853019 -0.0073374227 2.5036262e-20)
(0.070399536 -0.023300736 5.3026043e-20)
(0.13405242 -0.031949931 2.0819628e-20)
(0.20703149 -0.035358407 1.4083709e-20)
(0.28653708 -0.034818475 1.85838e-20)
(0.37044149 -0.030810989 -5.0846958e-20)
(0.45673887 -0.023854562 -2.7508808e-20)
(0.5435004 -0.014555558 0)
(0.62891072 -0.0035340469 1.6216531e-20)
(0.71129455 0.0085962569 -7.0784184e-21)
(0.78915423 0.021239228 -1.0604933e-19)
(0.86121738 0.03383579 -1.6835868e-20)
(0.92648222 0.04588552 7.0801032e-20)
(0.98425104 0.056965321 4.7341453e-22)
(1.0341451 0.066742643 -1.6990613e-21)
(1.0760972 0.074981296 2.3644769e-20)
(1.1103239 0.081547038 -5.4589865e-21)
(1.1372978 0.086435263 -6.560934e-20)
(1.1576273 0.089630041 -4.9260415e-20)
(1.171335 0.090189506 7.2454891e-20)
(0.028801494 -0.009091288 -3.8014339e-21)
(0.095754169 -0.02649172 -4.659837e-21)
(0.17458706 -0.033871584 5.8753057e-20)
(0.26135288 -0.034292508 1.9814971e-20)
(0.35302217 -0.029710534 -3.429011e-20)
(0.4471828 -0.021046324 1.2532238e-20)
(0.54154417 -0.0092063746 2.8270024e-21)
(0.63393589 0.0048561119 3.6492568e-20)
(0.72238195 0.020229179 6.1114214e-21)
(0.80515886 0.036068557 -1.4635081e-20)
(0.88085304 0.051614194 6.5645167e-20)
(0.94841271 0.066213976 -6.2317395e-20)
(1.0071807 0.079345529 -1.4237113e-19)
(1.0569006 0.090629668 -5.9937501e-21)
(1.097693 0.099833464 8.8965924e-20)
(1.130006 0.10686244 0)
(1.1545447 0.11174853 1.0990391e-20)
(1.1722 0.11465239 -1.6308336e-20)
(1.1839328 0.11576069 -9.3490602e-21)
(1.190328 0.11468053 2.1875242e-20)
(0.039206413 -0.0098980335 -4.991392e-21)
(0.12445938 -0.026876626 4.4912176e-21)
(0.21936205 -0.031302691 -9.0887587e-21)
(0.31994988 -0.027305066 2.9303677e-20)
(0.42304274 -0.017566792 -3.125406e-20)
(0.52600351 -0.0035042202 -1.7979964e-20)
(0.6263453 0.013550485 3.8568637e-20)
(0.72178754 0.032285802 4.7720887e-21)
(0.8103685 0.051517066 -2.6968239e-20)
(0.8905264 0.070220029 7.4946418e-20)
(0.96115898 0.087549198 1.6709771e-22)
(1.0216558 0.10285801 -8.640856e-20)
(1.0718935 0.11570978 0)
(1.1121929 0.12587352 4.2036032e-20)
(1.1432436 0.13330513 5.7940018e-21)
(1.1660069 0.13811653 -8.1953767e-20)
(1.1816099 0.14054083 -2.0726181e-20)
(1.1912495 0.14091 -1.3053135e-20)
(1.1960871 0.13956607 -1.5494997e-20)
(1.1969792 0.13644344 4.2401599e-20)
(0.050894131 -0.009451735 -1.7320964e-20)
(0.15587649 -0.023744346 -3.5466341e-21)
(0.26719048 -0.023371933 3.0820712e-20)
(0.38104534 -0.013558495 3.7741724e-20)
(0.49423603 0.0022576086 -2.0755753e-20)
(0.60401832 0.022138572 -7.3337861e-20)
(0.70786467 0.044327907 -3.0199398e-20)
(0.80358244 0.06719286 8.4000373e-20)
(0.88945341 0.089348623 9.5995283e-21)
(0.96431711 0.10969336 -2.6305673e-20)
(1.027606 0.12741772 1.4264524e-20)
(1.0793312 0.14200726 -4.6463627e-21)
(1.1200186 0.15322755 0)
(1.1506061 0.16108941 2.8807402e-20)
(1.1723162 0.16579953 -8.3707428e-20)
(1.1865235 0.16770313 -3.3187862e-20)
(1.1946331 0.16722882 8.5074084e-20)
(1.1979843 0.16484968 -4.8741524e-21)
(1.1977718 0.16100503 3.6222001e-21)
(1.194899 0.1558126 2.8608476e-20)
(0.063582169 -0.0074738916 -3.2629963e-20)
(0.18910705 -0.016505833 -8.4200692e-20)
(0.31655406 -0.0094506598 1.340533e-21)
(0.44253304 0.0074174387 7.3502208e-20)
(0.56398894 0.029930766 6.5400253e-20)
(0.67824935 0.055652921 -7.4331969e-20)
(0.78296245 0.082459889 4.1970498e-22)
(0.87626867 0.1084939 9.1213122e-20)
(0.95694317 0.13229761 5.1730251e-20)
(1.0244526 0.1528371 -5.7645151e-20)
(1.0789375 0.16948551 -9.7816568e-20)
(1.1211303 0.18199019 -3.3391001e-21)
(1.1522235 0.19041771 4.4431111e-20)
(1.1737113 0.19508027 -6.8607539e-21)
(1.187227 0.19645445 -1.3301878e-20)
(1.1943993 0.19510238 2.0281101e-20)
(1.1967399 0.19160615 4.5846213e-20)
(1.1955717 0.18652473 -4.554696e-20)
(1.1919911 0.18033314 -1.0666527e-19)
(1.1868087 0.17323974 2.5905002e-20)
(0.076849767 -0.0037440646 -3.6052058e-20)
(0.22295453 -0.0047695877 -1.7615852e-19)
(0.36557919 0.010765618 8.648232e-20)
(0.50198211 0.03566645 9.6988084e-20)
(0.6294796 0.065128086 6.0334678e-20)
(0.74570375 0.096299814 9.0873685e-21)
(0.84873453 0.12681067 -1.1151014e-19)
(0.93730224 0.15473295 0)
(1.0109018 0.17870906 -7.3005119e-20)
(1.0697937 0.19794205 -1.6137828e-20)
(1.1149133 0.21213352 5.7600245e-20)
(1.1477141 0.22139976 1.148121e-20)
(1.1699764 0.22616844 -4.7748801e-20)
(1.1836133 0.2270668 -5.1170625e-20)
(1.1905004 0.22481619 2.5526856e-20)
(1.1923478 0.22014441 4.696636e-20)
(1.1906215 0.21372334 -5.8038713e-20)
(1.1865115 0.20613475 -1.1178227e-19)
(1.1809388 0.19783586 -3.0481506e-21)
(1.1745568 0.18907071 2.8002045e-20)
(0.090121393 0.0018853605 -4.1100403e-21)
(0.25592977 0.011645471 9.0421004e-20)
(0.4120758 0.037263111 -1.3967693e-20)
(0.55672513 0.070832149 -8.9059107e-20)
(0.68781586 0.10708013 4.7315836e-20)
(0.80354333 0.14290057 5.0587661e-20)
(0.90267636 0.17586506 5.8294511e-21)
(0.98475913 0.20418362 -1.0438572e-19)
(1.0501666 0.22679805 -2.6332185e-21)
(1.1000292 0.24331684 5.3058877e-20)
(1.1360631 0.25389022 6.2643477e-21)
(1.16035 0.25906734 -2.0737462e-20)
(1.175109 0.25964707 -7.9029501e-20)
(1.1824964 0.25653875 -6.4085326e-21)
(1.1844577 0.25064832 4.5223101e-20)
(1.1826382 0.2427981 3.8385079e-20)
(1.1783507 0.23368148 2.0345819e-20)
(1.1725897 0.2238469 -5.5377001e-20)
(1.1660759 0.21369623 1.2873164e-20)
(1.1592933 0.20348099 8.5231231e-20)
(-0.0013415433 0.0014631067 -7.33793e-22)
(-0.0047702391 0.0031941083 1.8006823e-21)
(-0.010807573 0.0040829345 2.2047927e-21)
(-0.017630577 0.0044084823 -5.6259184e-22)
(-0.024324729 0.0043449926 -2.7237779e-21)
(-0.030462336 0.0040108484 2.854168e-21)
(-0.03576918 0.0034922268 -8.9686595e-21)
(-0.04007169 0.0028511983 -7.725619e-21)
(-0.043277534 0.0021317728 1.3703956e-20)
(-0.045348535 0.0013649089 -1.1715114e-20)
(-0.046280318 0.00057213128 -2.054278e-22)
(-0.046089482 -0.0002318529 4.3530466e-21)
(-0.044805072 -0.0010371793 -6.9621405e-22)
(-0.042462758 -0.0018372677 2.6242141e-20)
(-0.039101219 -0.0026274228 2.6022673e-22)
(-0.034761643 -0.0034033487 -4.6456286e-20)
(-0.029490195 -0.0041605088 8.6649356e-21)
(-0.023329741 -0.0048968644 2.6704828e-20)
(-0.016291835 -0.0056109537 -4.8876844e-20)
(-0.0084408684 -0.0062530984 -3.0764453e-20)
(-0.0017002146 0.0042568479 -5.8283899e-21)
(-0.005392365 0.0092692386 9.254863e-21)
(-0.011166083 0.01182648 -1.064156e-20)
(-0.017371966 0.012738843 6.4180538e-21)
(-0.023197019 0.012514695 7.5358072e-21)
(-0.028265833 0.011501327 1.0033309e-21)
(-0.032340729 0.0099516731 -2.964075e-20)
(-0.035274611 0.00804785 -2.4381743e-21)
(-0.036993002 0.0059189824 2.4455403e-20)
(-0.037469327 0.0036558896 -6.0276172e-21)
(-0.036706495 0.001321686 -2.5689563e-20)
(-0.034725345 -0.0010405431 5.7040632e-21)
(-0.031557011 -0.0034019641 2.5809554e-20)
(-0.027237588 -0.0057434233 1.1801267e-20)
(-0.021804364 -0.0080513382 2.5088653e-20)
(-0.015296323 -0.010313519 -2.2334577e-20)
(-0.0077640732 -0.012517239 -2.4224342e-20)
(0.00073831662 -0.014655953 2.3984376e-20)
(0.01027198 -0.016714924 2.9602674e-20)
(0.021030302 -0.018523932 1.7103399e-20)
(-0.0023462287 0.006657397 -4.7369174e-21)
(-0.0064676138 0.014423554 -4.4863972e-21)
(-0.011658092 0.01834208 -5.7926101e-23)
(-0.016603042 0.019672064 -6.6476911e-22)
(-0.020683922 0.019209679 7.938043e-21)
(-0.023626121 0.017505512 1.2429664e-20)
(-0.025262905 0.014961452 -4.713231e-21)
(-0.025498682 0.011867042 -2.2500643e-20)
(-0.02429397 0.0084279062 7.8082205e-21)
(-0.021645369 0.0047889017 1.518536e-20)
(-0.017570891 0.0010508107 7.053201e-21)
(-0.012100951 -0.002717555 2.0692523e-20)
(-0.0052724229 -0.0064703037 1.9805456e-21)
(0.0028756375 -0.010177365 -3.8138355e-20)
(0.012305758 -0.013817777 1.7106916e-21)
(0.022980481 -0.017373143 -2.413692e-20)
(0.034839384 -0.020826242 -2.7829902e-20)
(0.047803275 -0.024168459 5.1448137e-20)
(0.062053658 -0.02734629 2.8504185e-20)
(0.078285412 -0.029991588 6.4929781e-22)
(-0.003154156 0.0084494884 -5.9523253e-21)
(-0.0077086369 0.018147734 -1.2491403e-20)
(-0.011922758 0.022947427 4.5399151e-21)
(-0.01493939 0.024432033 4.929006e-21)
(-0.016408019 0.023614255 2.1651316e-21)
(-0.016195312 0.021208031 9.3010751e-21)
(-0.014235442 0.017736219 1.1412073e-20)
(-0.010507157 0.013575805 -1.7291266e-21)
(-0.0050227492 0.0089951769 -1.3543136e-20)
(0.0021854427 0.0041839121 -3.3894784e-20)
(0.011074475 -0.00072584774 2.0993205e-22)
(0.021595799 -0.0056437828 4.6488528e-20)
(0.033699473 -0.010510058 -2.0454635e-20)
(0.047335704 -0.015285819 -1.3860117e-20)
(0.062458892 -0.01994511 1.8109254e-22)
(0.079025957 -0.024467247 3.6246882e-20)
(0.096960213 -0.02883787 -1.7229444e-20)
(0.11613886 -0.033056197 -5.8771208e-20)
(0.13686784 -0.037005905 4.9803436e-20)
(0.16055319 -0.040001475 3.621016e-20)
(-0.0039566403 0.0094876391 -3.5421066e-22)
(-0.0087235227 0.020084801 -1.3635726e-20)
(-0.011456731 0.025154344 -4.0365546e-20)
(-0.0118327 0.026457771 -7.6139357e-21)
(-0.0098183438 0.025138282 -3.2456886e-21)
(-0.0054516895 0.022023685 7.6454402e-21)
(0.001208083 0.017722613 -5.8329239e-21)
(0.01008795 0.012673938 -1.0522185e-20)
(0.021107527 0.0071908371 2.5316662e-20)
(0.034184547 0.0014950001 5.6276627e-21)
(0.049238641 -0.0042585375 -2.9383338e-20)
(0.066191056 -0.0099636041 1.2324036e-20)
(0.08496499 -0.015549865 0)
(0.10548601 -0.020972853 1.3532704e-20)
(0.12768501 -0.026205135 -1.080851e-20)
(0.15149753 -0.031228819 -1.6128553e-20)
(0.17681708 -0.036042562 -7.635374e-22)
(0.20345514 -0.040674219 -2.7999144e-21)
(0.23180032 -0.044943647 4.9199123e-20)
(0.26411265 -0.047709501 -1.2601438e-20)
(-0.0045631279 0.0097055387 -7.9321387e-21)
(-0.0090509105 0.020056182 2.7556931e-20)
(-0.0096477236 0.024709623 -1.249912e-20)
(-0.0065946394 0.025457158 -3.1212455e-20)
(-0.00020123177 0.02348197 -3.0333047e-20)
(0.0093036992 0.019672102 -1.7123761e-20)
(0.0217181 0.014682355 -1.0031977e-21)
(0.036857686 0.0089837029 6.4145295e-21)
(0.054558506 0.0029130144 2.2214218e-20)
(0.074673215 -0.0032903161 8.3190905e-21)
(0.097065692 -0.0094587394 -7.9992826e-21)
(0.12160814 -0.015477501 -1.9318781e-21)
(0.14817717 -0.021271139 -4.2774203e-20)
(0.17665107 -0.026793607 -1.4131544e-20)
(0.20691144 -0.032019958 2.139128e-20)
(0.23884447 -0.036940452 -2.364139e-20)
(0.27229069 -0.041577203 -9.9029393e-21)
(0.30697154 -0.046015053 3.2614821e-20)
(0.34328436 -0.050046156 5.4140217e-20)
(0.38438678 -0.05196584 3.7612106e-21)
(-0.0047763406 0.0091120183 1.7579766e-20)
(-0.0081938089 0.018063096 1.5223407e-20)
(-0.0058109336 0.021609299 5.6146335e-20)
(0.0015708225 0.021435941 2.6414205e-20)
(0.013294218 0.018678889 2.0954388e-22)
(0.028929587 0.014232335 -4.4779954e-20)
(0.048119568 0.0087562818 -2.7259733e-20)
(0.070555416 0.0027233274 1.177622e-20)
(0.095970859 -0.0035291595 1.6159438e-20)
(0.1241317 -0.0097615877 -1.4456097e-20)
(0.15482403 -0.015806812 -4.942652e-20)
(0.18784485 -0.021551668 3.3187326e-20)
(0.22299453 -0.026923675 2.1985767e-20)
(0.26007098 -0.031882 -3.0564421e-20)
(0.29886955 -0.036410622 1.3063274e-20)
(0.339187 -0.040515011 2.6572471e-20)
(0.38077606 -0.044250722 9.0306006e-21)
(0.42324304 -0.047790033 -1.3457325e-20)
(0.46690727 -0.050975065 -1.4698765e-20)
(0.51574632 -0.051522721 8.2071545e-21)
(-0.0044034363 0.0077780991 1.1922194e-20)
(-0.005647165 0.014267651 -2.6241523e-20)
(0.00077470634 0.016086124 8.4240652e-21)
(0.013526668 0.014695549 3.7261226e-20)
(0.031612344 0.011104026 5.7007344e-20)
(0.054398221 0.0061609855 2.246495e-20)
(0.08136195 0.00049237606 -6.4674351e-21)
(0.11205155 -0.0054603395 -1.3625344e-20)
(0.14607737 -0.011384059 -6.9800779e-21)
(0.18309218 -0.017058779 3.8117137e-20)
(0.22277198 -0.02233435 -5.2836056e-21)
(0.26480171 -0.027113348 -1.867984e-20)
(0.30886423 -0.031338949 -2.1628115e-20)
(0.35463266 -0.034987338 -5.2548447e-20)
(0.40176949 -0.038062916 2.5470348e-20)
(0.44993482 -0.040598054 -1.5453605e-20)
(0.49875528 -0.042695228 2.8708209e-20)
(0.54770988 -0.044648621 2.318494e-20)
(0.59697672 -0.046470908 -9.0986691e-20)
(0.6511595 -0.045463156 4.8899727e-22)
(-0.0032631959 0.0058221484 2.3170888e-20)
(-0.00092417106 0.0089684903 -2.867445e-20)
(0.010819425 0.0085901229 -4.8408582e-20)
(0.030133098 0.005824259 -2.9674488e-20)
(0.055697855 0.0014794115 -2.2437492e-21)
(0.086671868 -0.0036882546 1.4470293e-20)
(0.12235437 -0.0091262745 -3.1387179e-21)
(0.16213086 -0.014456465 1.9916686e-20)
(0.20545967 -0.019417655 9.7293853e-21)
(0.25184455 -0.023833282 -1.2550878e-20)
(0.30080956 -0.027591536 1.0029418e-20)
(0.35188111 -0.030630391 -2.6435148e-20)
(0.40457548 -0.032926823 9.3163089e-21)
(0.45839081 -0.034490075 1.8542479e-20)
(0.51280656 -0.03535757 -3.1766558e-21)
(0.567294 -0.035596602 2.0130988e-21)
(0.62130165 -0.035357707 -6.9308255e-22)
(0.67416235 -0.035040872 2.1737091e-20)
(0.72588431 -0.034850106 3.9643403e-21)
(0.78146355 -0.032170476 -2.8516021e-21)
(-0.0011866777 0.0033980372 2.5372541e-20)
(0.0064239376 0.0025851967 6.2037669e-20)
(0.024968217 -0.00021502701 -5.2549427e-20)
(0.05214979 -0.0042852005 -1.0774463e-20)
(0.086341726 -0.0090885214 2.2063971e-20)
(0.12649009 -0.014009461 2.3267452e-21)
(0.17169986 -0.018609566 -3.2433407e-20)
(0.22116688 -0.022610946 7.6388441e-21)
(0.27416102 -0.025837923 7.7539445e-21)
(0.32999421 -0.028188771 -2.8799044e-20)
(0.38799299 -0.029620092 1.4136124e-21)
(0.44748157 -0.030134023 -4.1008043e-20)
(0.507773 -0.029767749 -4.012413e-20)
(0.56816666 -0.028585093 7.2556252e-20)
(0.62795168 -0.026669144 6.1372462e-21)
(0.68641448 -0.024121141 -1.6700475e-20)
(0.74282473 -0.021100397 2.1206242e-20)
(0.79636324 -0.017909365 -9.8952879e-22)
(0.84658068 -0.014574502 2.1249992e-20)
(0.89713942 -0.0095932153 -2.2213519e-20)
(0.00089594754 -0.0065404886 6.4618232e-20)
(0.011838599 -0.0070529259 1.6965096e-20)
(0.024221675 -0.0074597684 -3.7825157e-20)
(0.037685994 -0.0076887126 1.8335053e-20)
(0.051947122 -0.0078247707 0)
(0.066934627 -0.0078980104 0)
(0.082582136 -0.0079115303 -2.4265771e-20)
(0.09880223 -0.0078734593 -1.7234616e-20)
(0.11551606 -0.007793868 2.0145163e-20)
(0.13265655 -0.0076801721 1.8927587e-20)
(0.15016201 -0.0075380303 1.0339222e-21)
(0.16797438 -0.0073724236 -1.0469532e-20)
(0.18603955 -0.0071877082 8.6987093e-21)
(0.20430706 -0.0069875854 1.8269748e-20)
(0.22272955 -0.0067752249 -5.4987622e-21)
(0.24126232 -0.0065533777 -1.0030985e-20)
(0.25986315 -0.0063244423 -4.222237e-21)
(0.27849214 -0.0060905181 -4.191675e-21)
(0.29711156 -0.0058534521 6.733883e-22)
(0.3156858 -0.0056148764 1.202668e-21)
(0.33418132 -0.0053762368 2.5856951e-21)
(0.35256666 -0.0051388152 6.3870082e-21)
(0.37081243 -0.0049037466 8.3807544e-23)
(0.38889137 -0.004672032 -3.2891125e-21)
(0.40677834 -0.0044445489 1.1447822e-22)
(0.42445036 -0.0042220595 -5.4232973e-22)
(0.44188659 -0.0040052177 1.1602572e-21)
(0.45906839 -0.0037945753 9.2320172e-22)
(0.47597923 -0.0035905883 -1.286837e-21)
(0.49260472 -0.0033936229 -8.7739266e-23)
(0.50893255 -0.0032039615 -8.7171313e-23)
(0.5249524 -0.0030218094 -3.163483e-22)
(0.54065593 -0.0028473014 -4.1274939e-22)
(0.55603667 -0.0026805088 1.1050019e-22)
(0.57108996 -0.0025214468 -1.2114286e-22)
(0.58581285 -0.0023700821 -1.8213687e-22)
(0.60020406 -0.0022263401 2.0635636e-22)
(0.61426392 -0.0020901133 2.3068584e-22)
(0.62799426 -0.0019612709 -4.6567591e-23)
(0.64139876 -0.0018396633 -1.6816685e-22)
(0.65448176 -0.0017251519 7.6485714e-24)
(0.66725251 -0.0016175642 -1.6148886e-23)
(0.67971267 -0.0015169108 7.2511178e-23)
(0.69189606 -0.0014228006 -3.8041418e-23)
(0.70375199 -0.0013364759 -1.4570189e-22)
(0.71549642 -0.00125476 1.3235948e-23)
(0.72659369 -0.0011896153 9.9188345e-24)
(0.73872801 -0.0011093151 -6.2684653e-24)
(0.74730463 -0.0011200913 2.3824244e-23)
(0.76524271 -0.00095227848 3.7816474e-22)
(0.031574671 -0.019249873 -1.4657068e-20)
(0.04149454 -0.020805611 -6.8878432e-20)
(0.053338188 -0.022001575 -3.3719605e-20)
(0.06623482 -0.022653595 4.1725569e-20)
(0.07978134 -0.023044024 1.5805428e-20)
(0.093988625 -0.023260127 -1.9862474e-20)
(0.10882356 -0.023303193 5.4702458e-21)
(0.12420183 -0.023195607 2.6657593e-20)
(0.14005207 -0.022967334 -3.2948772e-22)
(0.15631699 -0.022639685 -8.1390813e-21)
(0.17294219 -0.022228643 -1.2845154e-20)
(0.18987507 -0.021748492 -9.0559926e-21)
(0.20706613 -0.021211821 1.8007091e-20)
(0.22446881 -0.02062934 9.9440742e-21)
(0.24203885 -0.020010243 -1.6059857e-20)
(0.25973409 -0.019362545 -5.9902499e-21)
(0.27751435 -0.018693266 3.0477594e-21)
(0.29534137 -0.018008574 7.9995955e-21)
(0.31317872 -0.017313915 6.9014114e-21)
(0.33099184 -0.016614122 -7.11829e-21)
(0.34874799 -0.015913488 -3.48368e-21)
(0.36641633 -0.015215832 1.6747432e-21)
(0.38396793 -0.014524546 8.0310205e-22)
(0.40137585 -0.013842629 1.2602523e-21)
(0.41861513 -0.013172715 2.6622492e-22)
(0.43566288 -0.012517101 -3.9688779e-22)
(0.45249827 -0.011877761 -7.596504e-22)
(0.46910254 -0.011256367 1.1194321e-21)
(0.48545899 -0.010654305 8.9210766e-22)
(0.501553 -0.010072694 -3.3403761e-22)
(0.51737191 -0.0095124033 6.1747713e-22)
(0.53290507 -0.0089740724 -2.1501434e-22)
(0.5481437 -0.0084581294 -4.3360393e-22)
(0.56308086 -0.0079648128 -6.2677956e-22)
(0.57771137 -0.0074941932 3.8813733e-22)
(0.59203176 -0.0070461947 -1.6214414e-22)
(0.60604016 -0.0066206191 2.5239128e-22)
(0.61973632 -0.0062171678 -4.7862991e-22)
(0.63312145 -0.005835473 4.8780612e-22)
(0.6461986 -0.0054751091 5.6636991e-23)
(0.65897147 -0.0051356832 -3.4051461e-23)
(0.67144867 -0.0048166991 2.3499041e-22)
(0.68363125 -0.0045182093 3.1714434e-22)
(0.69555217 -0.0042390599 2.4474755e-22)
(0.70716074 -0.0039829862 2.6844817e-22)
(0.71867001 -0.0037405025 -1.2848037e-23)
(0.72955027 -0.0035473487 1.3818185e-22)
(0.74146375 -0.0033088566 1.2029814e-22)
(0.74987705 -0.003341535 -2.0951957e-22)
(0.76752149 -0.0028429507 6.5747183e-24)
(0.091028855 -0.030813399 1.0749421e-20)
(0.098938133 -0.033423186 4.1777334e-21)
(0.1096127 -0.035356163 -1.4710015e-20)
(0.12135154 -0.036357592 -1.8787345e-21)
(0.13346217 -0.036969392 1.6694161e-20)
(0.14611289 -0.037330396 -1.5983142e-20)
(0.15934346 -0.0374209 -3.2325391e-20)
(0.173072 -0.037271698 1.5840074e-20)
(0.18723832 -0.036931805 1.9591775e-20)
(0.20180318 -0.036434259 -1.2388537e-20)
(0.21672542 -0.035802853 1.0588789e-21)
(0.23196186 -0.035059407 8.2666414e-21)
(0.24747098 -0.034223526 -1.6038272e-20)
(0.26321287 -0.033311953 4.267666e-21)
(0.27914867 -0.032339134 7.9564903e-21)
(0.29524045 -0.03131777 -8.2778712e-22)
(0.31145147 -0.030259082 -2.6398193e-22)
(0.32774618 -0.029173003 -7.7587847e-21)
(0.34409032 -0.028068374 4.7453362e-21)
(0.36045097 -0.026953085 8.7639468e-21)
(0.37679669 -0.025834196 -3.9293488e-21)
(0.39309761 -0.024718021 -2.1476903e-21)
(0.40932549 -0.023610193 8.1294747e-22)
(0.42545383 -0.022515722 -1.8073743e-21)
(0.44145793 -0.021439026 1.2851621e-21)
(0.45731496 -0.020383974 6.7859957e-22)
(0.47300399 -0.019353909 1.9512011e-21)
(0.48850602 -0.018351679 -2.294477e-21)
(0.50380397 -0.017379659 2.5983483e-21)
(0.51888271 -0.016439787 6.1254381e-22)
(0.53372898 -0.015533584 7.3157049e-22)
(0.5483314 -0.014662191 2.900421e-22)
(0.56268039 -0.0138264 1.096743e-21)
(0.57676814 -0.013026687 -1.6626123e-21)
(0.59058852 -0.012263248 4.6872536e-22)
(0.60413704 -0.011536034 2.8260764e-22)
(0.61741076 -0.010844793 -9.8485067e-23)
(0.63040834 -0.010189103 -2.4570937e-23)
(0.64312985 -0.009568425 -4.1729871e-22)
(0.65557717 -0.0089821235 2.4607647e-22)
(0.66775285 -0.0084296134 -2.6876208e-23)
(0.67966423 -0.0079101349 6.2778154e-22)
(0.69131132 -0.0074238369 -2.8845355e-22)
(0.70272542 -0.0069688598 3.1972171e-23)
(0.71385586 -0.0065514432 9.1882591e-23)
(0.72491025 -0.0061559432 -1.0453118e-22)
(0.73537013 -0.0058413705 -1.7726887e-22)
(0.74685571 -0.0054518329 5.8313035e-22)
(0.75495195 -0.0055071169 1.8636933e-22)
(0.77202665 -0.0046924686 -8.6483866e-22)
(0.17609549 -0.040449908 2.0016484e-21)
(0.18105484 -0.044099564 -1.1952753e-20)
(0.18980663 -0.046692227 6.5640134e-21)
(0.19974951 -0.047958761 -1.4511876e-20)
(0.20970102 -0.048765517 -2.1405913e-21)
(0.22003202 -0.04929135 1.0448196e-20)
(0.23090355 -0.049472723 -1.1577726e-20)
(0.24223331 -0.049339575 8.6382227e-22)
(0.25396925 -0.048957248 1.3640248e-20)
(0.26609532 -0.048367769 4.0716508e-21)
(0.27858761 -0.047599521 -6.4740217e-21)
(0.29141403 -0.046679222 -3.4280284e-21)
(0.30454223 -0.045631655 -5.3647644e-21)
(0.31794017 -0.044478284 -6.9790326e-21)
(0.33157513 -0.043237797 2.5178404e-21)
(0.34541402 -0.041926818 -4.0812802e-23)
(0.35942386 -0.04056023 1.6897066e-21)
(0.37357206 -0.039151375 -3.380322e-21)
(0.38782662 -0.037712249 -4.778527e-21)
(0.40215636 -0.036253665 2.6132722e-21)
(0.4165311 -0.034785384 3.6829329e-21)
(0.43092188 -0.033316199 -1.9981606e-21)
(0.44530103 -0.031854016 1.7418968e-21)
(0.45964239 -0.030405903 -5.8126809e-22)
(0.47392134 -0.028978138 -4.5263797e-21)
(0.48811492 -0.027576248 -3.0762095e-21)
(0.5022019 -0.02620504 -3.5445304e-22)
(0.51616281 -0.02486864 2.4322945e-22)
(0.52997994 -0.023570522 -2.2024066e-21)
(0.54363739 -0.022313546 -1.1941078e-21)
(0.557121 -0.021100002 2.084223e-22)
(0.57041838 -0.019931642 -1.4814868e-21)
(0.58351883 -0.018809733 -1.0438667e-22)
(0.59641332 -0.017735099 -5.6114376e-22)
(0.60909442 -0.016708172 -4.1973642e-22)
(0.62155625 -0.01572904 -7.9175567e-22)
(0.63379448 -0.014797502 -1.1845975e-21)
(0.64580626 -0.013913119 1.2914616e-23)
(0.65759012 -0.013075283 -3.2481242e-24)
(0.66914641 -0.012283246 -6.7429888e-22)
(0.68047609 -0.011536326 2.6955314e-23)
(0.69158488 -0.010833591 -4.7654611e-22)
(0.7024713 -0.010175367 -7.3046953e-22)
(0.71316445 -0.0095591809 5.6199079e-22)
(0.72361379 -0.0089937696 1.3021075e-23)
(0.73401918 -0.0084576266 2.8022124e-22)
(0.74387842 -0.0080320556 -2.0631838e-22)
(0.7547513 -0.0075031235 -3.9371338e-22)
(0.7623936 -0.007581664 9.519148e-25)
(0.77864939 -0.0064751082 4.99353e-22)
(0.28250557 -0.04733946 -2.4158634e-20)
(0.28360312 -0.052008604 5.1366815e-20)
(0.28954573 -0.055173717 1.0962113e-20)
(0.29697533 -0.056648302 -1.7238389e-20)
(0.3040522 -0.057661645 -2.7815384e-21)
(0.31133362 -0.058407741 2.2181019e-21)
(0.31914835 -0.05876262 -2.3624507e-21)
(0.32741577 -0.058745289 -4.9828871e-21)
(0.33608077 -0.058430239 -4.2582222e-21)
(0.34514917 -0.057865017 -1.2877788e-20)
(0.35461574 -0.057080141 1.9535527e-20)
(0.36445878 -0.05610453 7.3157409e-21)
(0.37465368 -0.054965969 -1.7368562e-20)
(0.38517512 -0.053689255 9.7431384e-21)
(0.39599573 -0.052296383 7.6928574e-21)
(0.40708637 -0.050807219 -6.3676907e-23)
(0.418417 -0.049239852 -2.6029078e-21)
(0.42995723 -0.047610761 -4.564334e-21)
(0.44167666 -0.04593497 -1.7304162e-21)
(0.45354518 -0.044226183 -1.5277356e-21)
(0.46553334 -0.042496893 -3.5883326e-21)
(0.47761252 -0.040758463 0)
(0.48975519 -0.039021181 -1.5906559e-21)
(0.50193504 -0.037294317 4.0262769e-21)
(0.51412714 -0.035586157 5.8773696e-21)
(0.52630803 -0.033904044 -8.8779786e-22)
(0.53845583 -0.032254414 -3.5291296e-21)
(0.55055025 -0.030642829 3.7454697e-21)
(0.56257267 -0.029074022 -9.4804879e-23)
(0.5745061 -0.027551941 3.9994548e-21)
(0.58633524 -0.026079791 -4.8991524e-22)
(0.59804639 -0.024660095 1.8564849e-21)
(0.60962748 -0.023294742 -9.7754043e-22)
(0.62106803 -0.02198505 4.9240525e-22)
(0.63235905 -0.02073183 -6.0666645e-22)
(0.64349309 -0.019535444 5.9913555e-22)
(0.65446411 -0.018395877 5.8925558e-22)
(0.66526756 -0.017312802 4.9625534e-22)
(0.67590023 -0.01628567 -1.2130491e-21)
(0.68636067 -0.01531374 8.6956236e-22)
(0.69664806 -0.014396351 -4.5086317e-22)
(0.7067662 -0.013532508 -1.530625e-21)
(0.71671197 -0.01272281 1.9542424e-21)
(0.72651188 -0.01196429 -5.0739578e-23)
(0.73611568 -0.011268148 -2.2351583e-22)
(0.74571363 -0.010607428 -6.5691464e-24)
(0.75482433 -0.010084337 -2.3852115e-22)
(0.76493099 -0.0094313389 -6.7238031e-22)
(0.77200623 -0.0095336552 7.275972e-22)
(0.78723192 -0.0081672269 -5.3664597e-23)
(0.40505603 -0.050522069 -2.0290416e-20)
(0.40143996 -0.056250445 1.3493323e-20)
(0.40360817 -0.059946912 4.3474091e-21)
(0.40774059 -0.061664375 -8.4025959e-21)
(0.41127518 -0.062977176 1.3118831e-20)
(0.41486045 -0.06405475 8.4478584e-21)
(0.41901533 -0.06471666 -1.3032451e-20)
(0.42367799 -0.06496796 -6.4937819e-21)
(0.42877539 -0.064879532 1.3504928e-20)
(0.43432304 -0.064498095 -1.7253496e-20)
(0.44033159 -0.063854983 -1.4755439e-20)
(0.44678766 -0.062979846 1.594193e-20)
(0.45367078 -0.061901655 7.1284501e-21)
(0.46095914 -0.060647372 -5.7688907e-21)
(0.46862827 -0.05924174 -1.0576187e-21)
(0.47665097 -0.057707572 -3.3404447e-21)
(0.4849984 -0.056066024 4.5475607e-21)
(0.49364084 -0.054336719 3.6990485e-21)
(0.50254814 -0.052537829 -3.0631244e-21)
(0.5116902 -0.050686133 3.1158271e-21)
(0.52103725 -0.048797086 3.0695551e-21)
(0.53056017 -0.046884867 -3.4767053e-21)
(0.54023078 -0.044962414 3.6518923e-22)
(0.55002197 -0.04304146 -3.1491251e-21)
(0.55990788 -0.041132561 8.6909997e-21)
(0.56986405 -0.03924513 6.7732031e-21)
(0.57986747 -0.037387472 1.183073e-21)
(0.58989664 -0.035566822 -1.8820257e-21)
(0.59993164 -0.033789394 4.6141109e-21)
(0.60995413 -0.032060428 8.5925798e-21)
(0.61994735 -0.030384252 2.4567516e-21)
(0.62989609 -0.028764345 3.9462281e-21)
(0.63978673 -0.027203401 2.2305875e-21)
(0.64960712 -0.025703406 9.1993573e-22)
(0.65934662 -0.024265712 -2.3552165e-22)
(0.66899602 -0.022891114 3.3123977e-21)
(0.67854753 -0.021579935 7.4139833e-22)
(0.68799479 -0.020332104 3.3362613e-22)
(0.69733276 -0.019147267 5.7502579e-23)
(0.70655812 -0.018024824 1.341132e-21)
(0.71566821 -0.016964256 3.9730578e-23)
(0.72466485 -0.015964628 6.5302589e-22)
(0.73354326 -0.015026908 -1.2681216e-22)
(0.7423271 -0.014147763 -4.6749028e-22)
(0.75096681 -0.013340801 -2.2617251e-22)
(0.75964152 -0.012574103 -6.1697698e-22)
(0.76789456 -0.011969078 2.781618e-22)
(0.77711921 -0.011209946 -1.8031801e-22)
(0.78354316 -0.011336402 -4.1670286e-22)
(0.79757345 -0.0097478877 3.0195835e-22)
(0.53753286 -0.049084995 3.3300163e-21)
(0.52858177 -0.05592656 -1.9562992e-20)
(0.5260608 -0.060173178 -2.7416289e-21)
(0.52613595 -0.062329534 5.8246642e-21)
(0.52561422 -0.064173925 3.8915851e-21)
(0.52504672 -0.065781613 9.6338873e-22)
(0.52510848 -0.066945527 7.7441195e-21)
(0.52579822 -0.067672088 8.4551272e-21)
(0.52702268 -0.068018522 1.0252149e-20)
(0.52878468 -0.068022043 -1.2208418e-20)
(0.53110033 -0.067713091 -2.3703604e-20)
(0.53396148 -0.067122097 -4.8367452e-21)
(0.53734817 -0.066278784 1.73089e-20)
(0.54123789 -0.065211903 1.3745621e-20)
(0.54560577 -0.06394899 -5.6556645e-21)
(0.55042414 -0.062516117 6.3152978e-22)
(0.55566335 -0.060937887 -4.4924141e-21)
(0.56129259 -0.059237489 3.5816132e-21)
(0.56728059 -0.057436682 -2.9468691e-22)
(0.57359594 -0.055555778 -2.0286172e-21)
(0.58020753 -0.053613641 8.8886916e-21)
(0.58708482 -0.051627699 -6.0411549e-22)
(0.59419816 -0.049613949 7.072524e-22)
(0.60151893 -0.047586974 -3.4965873e-22)
(0.60901973 -0.045559963 -4.6336582e-21)
(0.61667452 -0.043544736 4.5174787e-21)
(0.62445869 -0.041551781 1.8104528e-21)
(0.63234913 -0.039590296 -3.5230723e-21)
(0.64032426 -0.037668244 -4.0627448e-21)