/*--------------------------------*- C++ -*----------------------------------*\
  =========                 |
  \\      /  F ield         | OpenFOAM: The Open Source CFD Toolbox
   \\    /   O peration     | Website:  https://openfoam.org
    \\  /    A nd           | Version:  6
     \\/     M anipulation  |
\*---------------------------------------------------------------------------*/
FoamFile
{
    version     2.0;
    format      ascii;
    class       volVectorField;
    location    "265";
    object      U;
}
// * * * * * * * * * * * * * * * * * * * * * * * * * * * * * * * * * * * * * //

dimensions      [0 1 -1 0 0 0 0];

internalField   nonuniform List<vector> 
9200
(
(0.0010393461 0.0014199822 -5.9201839e-20)
(0.013676067 -0.0020583665 4.6042531e-20)
(0.038313166 -0.0058665676 -3.8501735e-20)
(0.072274436 -0.0097635044 -6.0257745e-20)
(0.11376474 -0.013490028 1.8826963e-20)
(0.16158088 -0.016605656 3.2743877e-20)
(0.21467148 -0.018817283 -1.2268007e-20)
(0.27206607 -0.019973888 9.2688611e-21)
(0.33285622 -0.02001122 1.6803424e-20)
(0.39616347 -0.018929048 1.484807e-21)
(0.46111555 -0.016779811 -2.1456334e-20)
(0.52683686 -0.013657726 2.0670002e-20)
(0.59245067 -0.0096879912 -4.0422147e-20)
(0.65709129 -0.0050157678 -2.1133901e-20)
(0.7199247 0.0002055719 5.9046524e-21)
(0.780175 0.0058241074 -2.5131671e-20)
(0.83717058 0.011712827 2.52171e-20)
(0.89046874 0.017918528 2.2243169e-20)
(0.93967069 0.024573429 -2.9929301e-22)
(0.98205185 0.0282934 -1.6691754e-21)
(0.0052521802 -0.0013462729 -1.7059352e-20)
(0.0269625 -0.0089890257 3.9747708e-20)
(0.061670114 -0.014809763 2.3576295e-20)
(0.10629489 -0.019172267 -1.1569757e-19)
(0.15873565 -0.022213993 -1.2727088e-20)
(0.21753351 -0.023720681 7.3297072e-20)
(0.28137295 -0.02359509 -3.5476397e-20)
(0.349006 -0.021868958 -8.3905558e-21)
(0.41923919 -0.018645516 3.4287536e-20)
(0.49090943 -0.014080832 -4.3259574e-20)
(0.5628723 -0.0083759407 -3.0338476e-20)
(0.63400845 -0.001766583 7.1921422e-20)
(0.70324328 0.0054884072 3.8294044e-20)
(0.7695758 0.013118646 -6.7976553e-20)
(0.83211244 0.020852097 1.462369e-20)
(0.89010035 0.02841972 -3.6733399e-20)
(0.94296915 0.035569689 -1.3777187e-20)
(0.99043228 0.042140901 7.0974784e-20)
(1.032356 0.047715323 2.9642058e-20)
(1.0669348 0.049139702 -8.3478514e-20)
(0.010858426 -0.0040424156 3.6773457e-20)
(0.043953412 -0.015431076 2.504737e-21)
(0.090515433 -0.022552281 2.2341712e-20)
(0.14711139 -0.026497356 9.8116817e-22)
(0.21134254 -0.027886294 -4.0773937e-20)
(0.28146766 -0.02679511 1.8576401e-20)
(0.35587039 -0.023382723 1.3420299e-20)
(0.43299006 -0.017921531 -5.0327698e-20)
(0.51132476 -0.010735644 5.7261852e-20)
(0.58942612 -0.0021838738 1.4256684e-20)
(0.66590914 0.0073479124 -5.43007e-20)
(0.73948034 0.01746027 -1.8237398e-20)
(0.80897596 0.02775657 9.0591655e-21)
(0.87340262 0.037859279 2.3444734e-20)
(0.9319736 0.04742405 -1.1362504e-20)
(0.98413365 0.056148979 2.7877731e-20)
(1.029574 0.063789179 -2.0188242e-20)
(1.0682645 0.070204397 -7.0123627e-20)
(1.1003321 0.075119382 -2.3796282e-20)
(1.1249112 0.07664124 4.8660044e-20)
(0.017957214 -0.006422163 2.4508015e-20)
(0.064776994 -0.020694798 5.1039222e-20)
(0.12485228 -0.028060845 1.9881693e-20)
(0.19446965 -0.030464063 1.2990094e-20)
(0.27094931 -0.029094838 1.7275701e-20)
(0.35224878 -0.024388975 -4.7720167e-20)
(0.43643137 -0.016825968 -2.5646853e-20)
(0.52162006 -0.006976666 0)
(0.60602894 0.0045670365 1.3920611e-20)
(0.68798705 0.017211736 -5.8523355e-21)
(0.76597516 0.030373926 -9.7934932e-20)
(0.83867445 0.043499637 -1.5774817e-20)
(0.90501524 0.056086621 6.5103184e-20)
(0.96421568 0.06770414 4.8442994e-22)
(1.0158035 0.07800772 -1.5725566e-21)
(1.0596155 0.086746797 2.1957496e-20)
(1.0957773 0.093772233 -5.2647162e-21)
(1.12468 0.099065339 -6.1029744e-20)
(1.1468647 0.10259709 -4.5851223e-20)
(1.1622957 0.10341386 6.9520531e-20)
(0.026579419 -0.0082056877 -3.9194207e-21)
(0.089344018 -0.024033505 -5.1256333e-21)
(0.16430753 -0.030264986 5.6599407e-20)
(0.24758119 -0.029810017 1.8539322e-20)
(0.3362416 -0.024513024 -3.1955063e-20)
(0.42795125 -0.015239856 1.2163839e-20)
(0.52047261 -0.0028513591 2.6402859e-21)
(0.61166356 0.011737099 3.3609164e-20)
(0.6995471 0.027640146 5.6599497e-21)
(0.78236836 0.044028773 -1.3204736e-20)
(0.85865404 0.060147728 6.0154025e-20)
(0.92726909 0.075340475 -5.800935e-20)
(0.98745674 0.089072866 -1.3216611e-19)
(1.038853 0.10094902 -5.5773024e-21)
(1.0814725 0.11071709 8.3150755e-20)
(1.1156655 0.11826406 0)
(1.1420548 0.12360583 1.0118965e-20)
(1.1614668 0.12689057 -1.5459764e-20)
(1.1748179 0.12829871 -8.599443e-21)
(1.1826673 0.12744917 2.099219e-20)
(0.036666908 -0.0090895793 -5.4309138e-21)
(0.11731511 -0.024685356 4.3578744e-21)
(0.20811868 -0.028140176 -8.7629835e-21)
(0.30515701 -0.023414952 2.8472394e-20)
(0.40533538 -0.013075588 -2.9392661e-20)
(0.50607146 0.0015226183 -1.6927022e-20)
(0.60490489 0.019095143 3.7364232e-20)
(0.69954958 0.038365258 4.7595458e-21)
(0.78800391 0.058167649 -2.4436052e-20)
(0.86863404 0.077483008 6.9867549e-20)
(0.94023971 0.095458647 5.2394118e-22)
(1.0020955 0.11143157 -8.0444301e-20)
(1.0539569 0.12494291 0)
(1.0960273 0.1357375 3.9542107e-20)
(1.1288921 0.14374844 5.5235988e-21)
(1.1534278 0.14906894 -7.7566382e-20)
(1.170699 0.15191914 -1.958692e-20)
(1.1818623 0.15262369 -1.2467627e-20)
(1.1880592 0.15152607 -1.470937e-20)
(1.190146 0.14858494 4.0420437e-20)
(0.048058867 -0.0087674048 -1.7277959e-20)
(0.1480831 -0.021931992 -2.2198246e-21)
(0.25514069 -0.020797833 3.0380504e-20)
(0.36546383 -0.010412791 3.748431e-20)
(0.4759042 0.0059015906 -1.9944733e-20)
(0.58374265 0.026269309 -6.9163025e-20)
(0.68644184 0.048977212 -2.7995793e-20)
(0.78176202 0.072417792 7.8929202e-20)
(0.86790195 0.095212481 8.5778111e-21)
(0.94358915 0.11624962 -2.487348e-20)
(1.0081258 0.13469828 1.3642212e-20)
(1.061387 0.15001556 -4.3194479e-21)
(1.1037693 0.1619366 0)
(1.1360975 0.17044428 2.7203478e-20)
(1.1595046 0.1757231 -7.9322396e-20)
(1.175302 0.1781037 -3.1475522e-20)
(1.1848569 0.17800814 8.1054562e-20)
(1.1894921 0.17590946 -4.2969828e-21)
(1.1904029 0.17225559 3.556108e-21)
(1.188508 0.16719299 2.7111535e-20)
(0.06048525 -0.0069573637 -3.2414615e-20)
(0.18077772 -0.01517038 -8.1624316e-20)
(0.30388928 -0.0075835258 2.5797776e-21)
(0.42642555 0.0097033577 7.0161806e-20)
(0.54535148 0.032631555 6.2424372e-20)
(0.657981 0.058820045 -7.1574518e-20)
(0.76190882 0.086176509 -2.8275267e-22)
(0.8551829 0.11285231 8.5522538e-20)
(0.93645345 0.13737838 4.8828064e-20)
(1.0050415 0.1586937 -5.4218401e-20)
(1.0609356 0.17613563 -9.2334204e-20)
(1.1047242 0.18941355 -3.1589822e-21)
(1.1374759 0.19855944 4.2127861e-20)
(1.1605873 0.20385857 -6.6056276e-21)
(1.1756247 0.2057702 -1.2868787e-20)
(1.1841776 0.2048492 1.9690809e-20)
(1.1877427 0.20167898 4.3880613e-20)
(1.1876453 0.19682589 -4.3859433e-20)
(1.1849953 0.19077885 -1.0232203e-19)
(1.180625 0.18377381 2.4566878e-20)
(0.073537214 -0.0034329733 -3.4979749e-20)
(0.21422687 -0.0039890252 -1.7388611e-19)
(0.35251656 0.011839376 8.2103236e-20)
(0.48562797 0.037018337 9.276751e-20)
(0.61085379 0.066835552 5.7970564e-20)
(0.72576726 0.098481178 8.6107088e-21)
(0.82834801 0.12959696 -1.0624009e-19)
(0.91718997 0.15824269 0)
(0.99162743 0.18302814 -6.8748582e-20)
(1.0517521 0.20311207 -1.5202408e-20)
(1.0983384 0.21814861 5.470346e-20)
(1.1327008 0.22821083 1.0973379e-20)
(1.1565109 0.23369261 -4.561385e-20)
(1.1716067 0.23519947 -4.9081359e-20)
(1.1798203 0.23344336 2.4287677e-20)
(1.182845 0.22915324 4.4822886e-20)
(1.1821488 0.22300987 -5.5600405e-20)
(1.178936 0.21560823 -1.0751122e-19)
(1.1741468 0.20742225 -3.1513623e-21)
(1.1684567 0.19871882 2.7046406e-20)
(0.086650445 0.001961386 -3.5448987e-21)
(0.24696018 0.011816634 8.7913238e-20)
(0.39884739 0.037492309 -1.6479248e-20)
(0.54040464 0.071218382 -8.4309143e-20)
(0.66949901 0.10778893 4.5164368e-20)
(0.78421951 0.14411543 4.9175451e-20)
(0.88318939 0.17775668 5.5356778e-21)
(0.96577869 0.2068849 -9.9502481e-20)
(1.0321763 0.23038802 -2.5048778e-21)
(1.0833328 0.24781553 5.0503539e-20)
(1.120807 0.25926301 5.9854756e-21)
(1.1465558 0.2652362 -1.9717203e-20)
(1.1627107 0.26650533 -7.5704622e-20)
(1.1713765 0.26396622 -6.2554026e-21)
(1.1744762 0.2585243 4.3533351e-20)
(1.1736548 0.25101089 3.7022011e-20)
(1.1702383 0.24213396 1.9793442e-20)
(1.1652402 0.23245876 -5.2994843e-20)
(1.1594014 0.22240419 1.2957449e-20)
(1.1532251 0.212238 8.2659102e-20)
(-0.0012932614 0.0014346597 -1.1234453e-21)
(-0.0047459601 0.0031874147 2.0646968e-21)
(-0.010771358 0.0041359039 8.7949821e-22)
(-0.017754286 0.0045395358 -2.4411026e-21)
(-0.024740317 0.0045654164 -1.4114816e-21)
(-0.031299591 0.0043260384 1.5460008e-21)
(-0.037161325 0.003903538 -6.8700787e-21)
(-0.04214744 0.0033577216 -5.9573027e-21)
(-0.046157774 0.0027313811 1.1171995e-20)
(-0.049146187 0.0020548305 -9.7427467e-21)
(-0.051100652 0.0013493004 -1.9833017e-22)
(-0.052030441 0.00062942194 3.6673436e-21)
(-0.051957735 -9.488941e-05 -6.3295563e-22)
(-0.05091188 -0.00081693027 2.281874e-20)
(-0.048925777 -0.0015318445 3.0401068e-22)
(-0.046035341 -0.0022351738 -4.0882866e-20)
(-0.042281798 -0.0029222677 7.5385614e-21)
(-0.037703444 -0.0035910382 2.3864107e-20)
(-0.032308696 -0.0042399861 -4.3852369e-20)
(-0.026156967 -0.0048211126 -2.7739201e-20)
(-0.0016521998 0.0041808661 -5.3716021e-21)
(-0.0053974808 0.0092681377 1.0865439e-20)
(-0.011218509 0.012007443 -1.0191541e-20)
(-0.017658025 0.013153763 3.9229723e-21)
(-0.023856431 0.013195412 4.8121418e-21)
(-0.029433316 0.012462724 7.1324159e-22)
(-0.034152319 0.011197013 -2.2509483e-20)
(-0.037860376 0.0095738965 -2.0370237e-21)
(-0.040474296 0.007718987 2.0163535e-20)
(-0.04195892 0.0057212303 -5.0473589e-21)
(-0.042308948 0.0036428646 -2.1762585e-20)
(-0.041537336 0.001526713 4.8973159e-21)
(-0.039667712 -0.00059830502 2.2635416e-20)
(-0.036729081 -0.0027127603 1.0308389e-20)
(-0.032752035 -0.0048026883 2.1854281e-20)
(-0.027769173 -0.0068555074 -1.9770725e-20)
(-0.021824798 -0.0088582183 -2.167294e-20)
(-0.014966276 -0.010804223 2.1184614e-20)
(-0.0071290245 -0.012678999 2.681036e-20)
(0.0018742861 -0.014317221 1.5854762e-20)
(-0.0023034291 0.0065602323 -4.3568685e-21)
(-0.0065392235 0.014480195 -5.6387547e-21)
(-0.011892131 0.018710542 3.0723955e-22)
(-0.017211098 0.020428179 1.0959888e-21)
(-0.021819141 0.020400323 6.6918392e-21)
(-0.02543104 0.019151665 1.0665167e-20)
(-0.02787723 0.017066287 -3.7227627e-21)
(-0.029053268 0.014423782 -1.8896161e-20)
(-0.028909036 0.011424352 6.5413158e-21)
(-0.02743105 0.008209905 1.2862567e-20)
(-0.024627714 0.0048797762 5.8340844e-21)
(-0.02052011 0.001502239 1.8159101e-20)
(-0.015135988 -0.0018768626 1.7295911e-21)
(-0.0085054026 -0.0052272467 -3.3864521e-20)
(-0.00065689838 -0.0085276087 1.2020172e-21)
(0.0083810095 -0.011759107 -2.2139206e-20)
(0.018556857 -0.014904094 -2.4466299e-20)
(0.029802168 -0.01795375 4.5819703e-20)
(0.042304948 -0.020855113 2.5349343e-20)
(0.056738552 -0.023247762 1.2239298e-22)
(-0.0031290275 0.0083689696 -5.2833065e-21)
(-0.0078963985 0.018336512 -8.481525e-21)
(-0.012438985 0.023587808 4.3593044e-21)
(-0.016026534 0.025609657 4.1463444e-21)
(-0.018235023 0.025382744 2.0105706e-21)
(-0.018912651 0.023589321 7.3209937e-21)
(-0.017984717 0.020730272 9.3124756e-21)
(-0.01541671 0.017170377 -1.3511349e-21)
(-0.011207049 0.013171314 -1.1481944e-20)
(-0.0053752365 0.0089189317 -2.9071871e-20)
(0.0020481066 0.0045434377 6.189258e-23)
(0.011026501 0.00013431187 4.0697812e-20)
(0.021522215 -0.0042489497 -1.8383168e-20)
(0.033497838 -0.0085675831 -1.2296085e-20)
(0.046920496 -0.012795544 5.5348911e-22)
(0.061760075 -0.016911852 3.2302638e-20)
(0.077952989 -0.020901666 -1.4829541e-20)
(0.095392236 -0.024763371 -5.3339173e-20)
(0.11439842 -0.028379713 4.5765e-20)
(0.13634534 -0.031073089 3.3013165e-20)
(-0.0039704094 0.0094657318 -6.8788997e-22)
(-0.0090916576 0.020487791 -1.2534739e-20)
(-0.012364471 0.026159086 -3.414453e-20)
(-0.01355254 0.028143337 -5.7241606e-21)
(-0.01253324 0.027555006 -3.6222742e-21)
(-0.0093167251 0.025188063 6.3051022e-21)
(-0.0039456463 0.021627411 -4.6461945e-21)
(0.0035261255 0.017298959 -8.8070245e-21)
(0.013036817 0.012508752 2.1899705e-20)
(0.024521236 0.0074744433 5.0567058e-21)
(0.037915531 0.0023489051 -2.5290289e-20)
(0.053157436 -0.0027627825 1.1078276e-20)
(0.070186855 -0.0077908725 0)
(0.088946567 -0.0126913 1.2089573e-20)
(0.10938542 -0.017436916 -9.7016157e-21)
(0.13145739 -0.022009893 -1.4337117e-20)
(0.15507405 -0.026408642 -1.5738934e-21)
(0.18006758 -0.030659415 -2.2181553e-21)
(0.20685339 -0.034576528 4.6147058e-20)
(0.23766356 -0.037019861 -1.0470127e-20)
(-0.0046450977 0.0097808619 -7.5356673e-21)
(-0.0096772505 0.020747879 2.4516397e-20)
(-0.01106438 0.026160976 -1.0499345e-20)
(-0.0090968328 0.027724444 -2.7469278e-20)
(-0.0039797216 0.026601694 -2.7548143e-20)
(0.0040961811 0.023648408 -1.4921566e-20)
(0.014954146 0.019496457 -6.9059554e-22)
(0.028436231 0.014604706 5.5499768e-21)
(0.044403141 0.0093034475 1.9615874e-20)
(0.062730489 0.0038284169 7.3530839e-21)
(0.083304306 -0.0016547532 -7.1862196e-21)
(0.10601896 -0.0070322361 -2.0102302e-21)
(0.13077356 -0.012229095 -3.8191702e-20)
(0.15746942 -0.017199749 -1.2693642e-20)
(0.18601198 -0.02191973 1.8750603e-20)
(0.21631175 -0.026379712 -2.1021669e-20)
(0.24823221 -0.030602217 -8.9730555e-21)
(0.28151865 -0.034670601 3.0440459e-20)
(0.31660701 -0.038364812 5.0472067e-20)
(0.35665012 -0.039964092 3.3559668e-21)
(-0.0049617682 0.0093139984 1.6783303e-20)
(-0.009166269 0.019097709 1.4467937e-20)
(-0.007859365 0.023563366 5.1145482e-20)
(-0.0018585402 0.024328943 2.3387978e-20)
(0.0082957214 0.022523783 1.8251771e-22)
(0.022221937 0.019014385 -3.9388449e-20)
(0.039597438 0.014440937 -2.4313856e-20)
(0.060147898 0.0092663606 1.0465815e-20)
(0.083639108 0.0038232298 1.4401584e-20)
(0.10986668 -0.001651297 -1.3113708e-20)
(0.13864562 -0.0069910068 -4.4038706e-20)
(0.16980169 -0.012082844 2.9618492e-20)
(0.20316403 -0.016854155 2.0020547e-20)
(0.23855944 -0.02126399 -2.755115e-20)
(0.27581228 -0.025296397 1.1650132e-20)
(0.31474808 -0.028957161 2.4197607e-20)
(0.35514543 -0.032303045 8.0723922e-21)
(0.39663384 -0.035506668 -1.1764208e-20)
(0.43957698 -0.038392633 -1.4190297e-20)
(0.48798506 -0.038634391 5.8727607e-21)
(-0.0047307761 0.008123673 1.1093844e-20)
(-0.0070586005 0.015671176 -2.3352717e-20)
(-0.0020293664 0.018562032 8.6200545e-21)
(0.0090325188 0.018216225 3.3587962e-20)
(0.025256359 0.01565115 5.2124333e-20)
(0.046066334 0.011695604 2.0276507e-20)
(0.070984517 0.0069609537 -5.8639349e-21)
(0.099601941 0.0018829533 -1.2286282e-20)
(0.13156893 -0.0032271955 -6.2057459e-21)
(0.16657566 -0.0081496541 3.4240829e-20)
(0.20433423 -0.012733316 -4.5104375e-21)
(0.24456483 -0.016879182 -1.6643297e-20)
(0.28698467 -0.02052868 -1.9693569e-20)
(0.33129995 -0.023656404 -4.7443728e-20)
(0.37720456 -0.026265524 2.3238699e-20)
(0.42438767 -0.02838785 -1.4095981e-20)
(0.4724997 -0.030127608 2.5993392e-20)
(0.52103614 -0.031783175 2.1040818e-20)
(0.57021391 -0.033350662 -8.5570376e-20)
(0.62470912 -0.032058821 -1.0807319e-22)
(-0.0037710519 0.0063146394 2.1925054e-20)
(-0.0028657667 0.010735096 -2.6165527e-20)
(0.0071421037 0.011564137 -4.5013291e-20)
(0.024450231 0.0099249906 -2.7253778e-20)
(0.047870847 0.0066523073 -2.0439866e-21)
(0.076628697 0.0024906191 1.3050093e-20)
(0.11007672 -0.0020153927 -2.8337691e-21)
(0.14765205 -0.0064879006 1.8118534e-20)
(0.18886094 -0.010663499 8.8685601e-21)
(0.23325193 -0.014362416 -1.138017e-20)
(0.28039147 -0.017468943 8.8779114e-21)
(0.32984601 -0.019916798 -2.3903263e-20)
(0.38116878 -0.021678688 8.0504748e-21)
(0.43389082 -0.022759864 1.6756389e-20)
(0.48751933 -0.023194288 -2.6395109e-21)
(0.54154713 -0.023046877 1.6618963e-21)
(0.59543542 -0.022469429 -3.1957376e-22)
(0.6485178 -0.021870086 1.9590415e-20)
(0.70082236 -0.021445041 4.0433988e-21)
(0.75745147 -0.018499058 -5.7333373e-22)
(-0.0019110145 0.0040273482 2.3692111e-20)
(0.0038694293 0.0046765208 5.7159955e-20)
(0.020315309 0.0031879656 -4.9244221e-20)
(0.045178281 0.00029442796 -9.9454137e-21)
(0.076965147 -0.0034241493 2.0256343e-20)
(0.11469622 -0.0073535826 2.1433715e-21)
(0.15753882 -0.011054953 -2.9815158e-20)
(0.2047483 -0.014244134 6.9848093e-21)
(0.25564948 -0.016737922 7.109787e-21)
(0.30960471 -0.018426949 -2.6254074e-20)
(0.36598646 -0.019260089 1.2927326e-21)
(0.42415956 -0.019231857 -3.7174108e-20)
(0.48347099 -0.018372191 -3.634101e-20)
(0.54324562 -0.016738263 6.5683471e-20)
(0.60278809 -0.014407287 5.5627474e-21)
(0.66138882 -0.011475882 -1.5188792e-20)
(0.71830781 -0.0081020273 1.9363959e-20)
(0.77269898 -0.0045928461 -9.1888094e-22)
(0.82408832 -0.00096802715 2.0364573e-20)
(0.87621964 0.0043280913 -1.955412e-20)
(-0.018836425 -0.0050997018 5.835203e-20)
(-0.010224666 -0.0056349248 1.578366e-20)
(-0.00022120972 -0.0060688775 -3.5139547e-20)
(0.010823207 -0.0063341067 1.6790229e-20)
(0.022642442 -0.0065120438 0)
(0.035177855 -0.0066300864 0)
(0.048369626 -0.0066909695 -2.2974936e-20)
(0.062138035 -0.0067025357 -1.6502862e-20)
(0.07641267 -0.0066741699 1.9122585e-20)
(0.091134024 -0.0066126611 1.8174025e-20)
(0.10624712 -0.006523201 1.0524246e-21)
(0.12170016 -0.0064103531 -1.031763e-20)
(0.13744484 -0.0062780761 8.3268762e-21)
(0.15343593 -0.0061297172 1.8233707e-20)
(0.16963069 -0.0059681398 -5.2274152e-21)
(0.18598846 -0.0057958292 -1.0174929e-20)
(0.20247049 -0.0056149566 -4.3195849e-21)
(0.21903974 -0.0054274309 -4.4257358e-21)
(0.23566079 -0.0052349444 7.3667137e-22)
(0.25229979 -0.0050390072 1.2286033e-21)
(0.26892437 -0.0048409744 2.5666298e-21)
(0.28550378 -0.0046420658 6.6539424e-21)
(0.30200881 -0.0044433806 2.4894395e-22)
(0.31841192 -0.0042459082 -3.4514681e-21)
(0.33468728 -0.0040505362 1.5558757e-22)
(0.35081082 -0.0038580562 -5.7709746e-22)
(0.36676027 -0.003669168 1.2434355e-21)
(0.38251524 -0.0034844842 1.052243e-21)
(0.39805719 -0.0033045331 -1.2987921e-21)
(0.41336951 -0.003129763 -1.2218734e-22)
(0.42843747 -0.0029605457 3.5750106e-23)
(0.44324822 -0.0027971814 -3.5187549e-22)
(0.45779075 -0.0026399031 -4.0565357e-22)
(0.47205589 -0.002488882 5.5412831e-23)
(0.4860362 -0.0023442335 -1.3809012e-22)
(0.49972601 -0.0022060229 -2.2343126e-22)
(0.51312129 -0.0020742725 2.5571871e-22)
(0.5262197 -0.0019489678 2.9501902e-22)
(0.53902043 -0.0018300673 -8.2710664e-24)
(0.55152461 -0.0017175053 -1.5517328e-22)
(0.56373418 -0.001611221 3.0406544e-23)
(0.57565575 -0.0015111139 -4.0144601e-23)
(0.58728949 -0.0014172551 9.2203086e-23)
(0.5986644 -0.0013293083 2.1977163e-23)
(0.60973486 -0.0012485569 -1.1394412e-22)
(0.62069288 -0.0011717917 -6.7611755e-24)
(0.63106084 -0.0011112427 -7.2435836e-26)
(0.64234933 -0.001033946 -3.5610436e-24)
(0.65042727 -0.0010508031 2.9453745e-23)
(0.66700809 -0.00087555688 3.6050598e-22)
(0.010445864 -0.015017607 -1.2746814e-20)
(0.018179691 -0.01664101 -6.3302323e-20)
(0.027779208 -0.017915411 -3.0541935e-20)
(0.038385136 -0.018672069 3.8476005e-20)
(0.049620977 -0.019183586 1.4662607e-20)
(0.061506617 -0.01952943 -1.8204925e-20)
(0.074012806 -0.019709862 4.6722023e-21)
(0.087062653 -0.019746489 2.5447183e-20)
(0.10059312 -0.019667278 9.199269e-23)
(0.11455399 -0.019491697 -7.6591232e-21)
(0.12889715 -0.019234356 -1.3021013e-20)
(0.14357598 -0.018908308 -8.5245287e-21)
(0.15854661 -0.018524969 1.777233e-20)
(0.17376751 -0.018093997 8.9295435e-21)
(0.18919894 -0.017623675 -1.6522433e-20)
(0.20480271 -0.017121227 -6.0390566e-21)
(0.22054208 -0.016592992 3.2145038e-21)
(0.23638168 -0.016044565 8.3716299e-21)
(0.25228746 -0.015480926 6.9832251e-21)
(0.26822666 -0.014906536 -6.9727141e-21)
(0.28416785 -0.014325408 -3.1685453e-21)
(0.30008101 -0.013741169 1.3605335e-21)
(0.31593756 -0.013157093 3.8682783e-22)
(0.33171043 -0.012576135 1.2113948e-21)
(0.34737418 -0.012000952 1.8368345e-22)
(0.362905 -0.011433918 -3.2661606e-22)
(0.37828084 -0.010877135 -7.2434824e-22)
(0.39348139 -0.010332447 9.7156506e-22)
(0.40848819 -0.0098014488 8.2482883e-22)
(0.42328457 -0.0092854954 -1.5147309e-22)
(0.43785572 -0.0087857158 5.5306017e-22)
(0.45218862 -0.0083030244 -2.38809e-22)
(0.46627207 -0.0078381359 -3.7069838e-22)
(0.48009663 -0.0073915805 -6.0999014e-22)
(0.49365458 -0.0069637213 4.4171692e-22)
(0.50693989 -0.0065547721 -1.547671e-23)
(0.51994815 -0.0061648175 1.6124678e-22)
(0.53267662 -0.0057938328 -4.4174667e-22)
(0.54512406 -0.0054417109 3.7189394e-22)
(0.55729112 -0.0051082738 6.7175109e-23)
(0.56917931 -0.0047933564 -1.0285391e-22)
(0.5807947 -0.004496675 1.7613614e-22)
(0.59213703 -0.0042184585 2.3339524e-22)
(0.60323456 -0.0039577171 1.692637e-22)
(0.61404185 -0.0037182963 1.6767064e-22)
(0.62474803 -0.0034906408 -2.6097725e-23)
(0.63488188 -0.0033111995 8.4042658e-23)
(0.64593102 -0.0030818567 7.6290548e-23)
(0.65382942 -0.0031323442 -1.9466329e-22)
(0.67009126 -0.0026124267 -3.8026667e-23)
(0.067614674 -0.024029142 9.4528282e-21)
(0.073589655 -0.026749045 3.2950967e-21)
(0.082265489 -0.028805563 -1.2162196e-20)
(0.0919478 -0.029968498 -1.2257917e-21)
(0.10198319 -0.030767858 1.4970585e-20)
(0.11254631 -0.031330885 -1.4887118e-20)
(0.12367594 -0.031636063 -2.9842266e-20)
(0.13529679 -0.031712998 1.4493519e-20)
(0.14735692 -0.031607628 1.8181962e-20)
(0.15982339 -0.031350048 -1.1598513e-20)
(0.17266056 -0.030961811 1.019055e-21)
(0.18583077 -0.030462745 8.6860129e-21)
(0.19929779 -0.029870542 -1.5253537e-20)
(0.21302652 -0.02920023 2.9095141e-21)
(0.22698238 -0.028464751 7.5194335e-21)
(0.24113135 -0.027675495 3.1598139e-23)
(0.2554401 -0.026842548 2.65564e-22)
(0.269876 -0.025974887 -7.4150835e-21)
(0.28440726 -0.025080554 3.8616814e-21)
(0.29900293 -0.024166809 8.4749019e-21)
(0.31363307 -0.023240223 -3.8351747e-21)
(0.32826885 -0.022306763 -2.2130358e-21)
(0.34288264 -0.021371845 1.0124437e-21)
(0.35744813 -0.020440376 -1.7155317e-21)
(0.37194042 -0.019516783 1.3532249e-21)
(0.38633611 -0.018605036 7.1845891e-22)
(0.40061341 -0.017708664 1.5268375e-21)
(0.41475214 -0.016830773 -1.9526601e-21)
(0.42873382 -0.015974058 2.2235661e-21)
(0.44254166 -0.015140822 5.5188484e-22)
(0.45616063 -0.014332994 4.0322465e-22)
(0.46957738 -0.013552148 3.213445e-22)
(0.48278028 -0.012799528 8.7324859e-22)
(0.49575939 -0.012076072 -1.3708582e-21)
(0.5085064 -0.011382443 3.7065488e-22)
(0.52101462 -0.010719053 1.094122e-22)
(0.53327895 -0.010086102 -4.5172017e-23)
(0.54529585 -0.0094836055 8.6732936e-23)
(0.55706329 -0.0089114437 -3.7184865e-22)
(0.56858106 -0.0083693763 1.8293429e-22)
(0.57984978 -0.0078571843 -3.4987047e-23)
(0.59087458 -0.0073744493 3.9003988e-22)
(0.60165439 -0.0069216006 -1.8544326e-22)
(0.6122161 -0.0064970497 4.7323246e-23)
(0.62251458 -0.0061071853 4.360322e-23)
(0.63273354 -0.00573632 -7.3598777e-23)
(0.64241393 -0.0054443938 -1.2082318e-22)
(0.65299941 -0.0050704866 3.8808749e-22)
(0.66054943 -0.0051542302 1.7270391e-22)
(0.676193 -0.0043069954 -8.3039557e-22)
(0.15021526 -0.031460423 1.5010103e-21)
(0.15354687 -0.035257388 -1.156661e-20)
(0.1606162 -0.038010912 6.6441912e-21)
(0.16880588 -0.03947909 -1.3324734e-20)
(0.17698221 -0.040520681 -1.9758301e-21)
(0.18552343 -0.041302271 9.1599401e-21)
(0.19458417 -0.041757227 -9.7662148e-21)
(0.20408688 -0.0419137 1.5662788e-21)
(0.21398764 -0.04183332 1.2903796e-20)
(0.22427595 -0.041554325 3.4031989e-21)
(0.2349325 -0.041102034 -6.2096943e-21)
(0.24593017 -0.040500438 -2.8638088e-21)
(0.25724154 -0.039771737 -5.840905e-21)
(0.26883907 -0.038935044 -6.455312e-21)
(0.28069418 -0.038006964 3.2356919e-21)
(0.29277758 -0.037002291 8.462107e-22)
(0.30505969 -0.035934314 1.3679575e-21)
(0.31751093 -0.034815011 -3.3850409e-21)
(0.33010189 -0.033655237 -4.2428843e-21)
(0.34280356 -0.032464884 2.3616499e-21)
(0.3555875 -0.031252985 3.2251342e-21)
(0.36842606 -0.030027804 -1.5636186e-21)
(0.38129252 -0.02879689 1.586726e-21)
(0.39416125 -0.02756712 -3.9123952e-22)
(0.40700782 -0.026344731 -3.9196382e-21)
(0.41980915 -0.02513534 -3.0332801e-21)
(0.43254353 -0.023943964 -1.9026248e-22)
(0.44519079 -0.022775037 4.2858943e-22)
(0.45773227 -0.021632428 -2.2106021e-21)
(0.47015088 -0.020519464 -8.5497042e-22)
(0.48243117 -0.019438952 2.2837643e-22)
(0.49455924 -0.018393208 -1.2498668e-21)
(0.50652282 -0.017384084 6.2632949e-24)
(0.51831121 -0.016413012 -4.2420798e-22)
(0.52991527 -0.015481034 -4.7193573e-22)
(0.54132738 -0.014588845 -5.1995537e-22)
(0.55254145 -0.013736842 -8.4132871e-22)
(0.56355287 -0.012925164 -5.4496418e-23)
(0.5743585 -0.012153758 -3.9160384e-24)
(0.58495697 -0.011422401 -5.1972159e-22)
(0.59534771 -0.010730898 -9.160718e-23)
(0.60553457 -0.01007877 -3.3239219e-22)
(0.61551537 -0.0094667107 -4.3759682e-22)
(0.6253151 -0.008892622 3.7841508e-22)
(0.63488915 -0.0083653885 1.4820881e-23)
(0.64441357 -0.0078635646 1.8237437e-22)
(0.65344681 -0.0074693218 -1.3246522e-22)
(0.66336937 -0.006962932 -2.66908e-22)
(0.67042143 -0.0070791298 -4.4693461e-23)
(0.68517828 -0.0059326618 4.6229401e-22)
(0.25468562 -0.036552746 -2.0900312e-20)
(0.25447016 -0.041393496 4.7585936e-20)
(0.25907328 -0.044745643 1.0348085e-20)
(0.26508407 -0.046442027 -1.576531e-20)
(0.27070926 -0.047714299 -2.0227951e-21)
(0.27651988 -0.048747759 2.6232291e-21)
(0.28283542 -0.0494137 -1.6608169e-21)
(0.28957682 -0.049728081 -4.6861409e-21)
(0.29669649 -0.049761411 -4.0159154e-21)
(0.30420538 -0.049557033 -1.2207635e-20)
(0.31210208 -0.049141667 1.789775e-20)
(0.32036927 -0.048540782 6.5219883e-21)
(0.32898689 -0.047778945 -1.6780521e-20)
(0.33793391 -0.046877998 1.0317572e-20)
(0.34718695 -0.04585728 8.3849898e-21)
(0.35672062 -0.044734292 -8.7923719e-22)
(0.36650831 -0.043525046 -3.1222227e-21)
(0.37652275 -0.042244227 -3.8197299e-21)
(0.38673627 -0.040905338 -1.3892571e-21)
(0.39712115 -0.039520831 -1.2304184e-21)
(0.40764993 -0.0381022 -3.0257589e-21)
(0.41829562 -0.036660047 0)
(0.42903196 -0.035204133 -1.3451903e-21)
(0.43983355 -0.0337434 3.9309492e-21)
(0.45067606 -0.032286006 5.4052632e-21)
(0.4615363 -0.030839332 -9.4112525e-22)
(0.47239239 -0.029410005 -2.9274407e-21)
(0.48322379 -0.028003912 3.0258348e-21)
(0.49401137 -0.026626221 2.5447528e-22)
(0.50473751 -0.025281403 3.4352411e-21)
(0.51538601 -0.023973265 -5.3459714e-22)
(0.52594223 -0.022704982 1.7173447e-21)
(0.536393 -0.021479137 -7.9964223e-22)
(0.54672664 -0.020297765 2.909403e-22)
(0.55693294 -0.019162401 -4.3403814e-22)
(0.56700315 -0.018074136 5.6231527e-22)
(0.57692998 -0.01703367 4.5709733e-22)
(0.58670755 -0.016041372 3.8255459e-22)
(0.5963314 -0.015097358 -9.5935846e-22)
(0.60579879 -0.014201523 6.8355148e-22)
(0.61510777 -0.01335379 -3.6957197e-22)
(0.62426067 -0.012553717 -1.1033125e-21)
(0.63325409 -0.011802337 1.4078081e-21)
(0.64211073 -0.011097155 -6.2005435e-23)
(0.65078677 -0.010449476 -1.5815851e-22)
(0.6594487 -0.0098326 -7.8243721e-24)
(0.66767718 -0.0093492134 -1.2621376e-22)
(0.67677299 -0.0087261714 -4.6581908e-22)
(0.68320482 -0.0088736068 8.7882942e-22)
(0.6968502 -0.00746486 -4.4315501e-23)
(0.37635124 -0.038368151 -1.7495096e-20)
(0.37170971 -0.044270213 1.2832038e-20)
(0.37286684 -0.048161595 2.9754663e-21)
(0.37591039 -0.050098832 -7.6353721e-21)
(0.3783052 -0.051669952 1.2055985e-20)
(0.38072287 -0.053042353 7.7914126e-21)
(0.38367594 -0.054030018 -1.264769e-20)
(0.3871005 -0.054633081 -6.0679745e-21)
(0.39092916 -0.054917981 1.2697336e-20)
(0.39518235 -0.05492711 -1.5304971e-20)
(0.39987416 -0.05468749 -1.4063189e-20)
(0.40499498 -0.054224627 1.412963e-20)
(0.41052852 -0.053563634 6.8193825e-21)
(0.41645708 -0.052727922 -4.203765e-21)
(0.42276004 -0.05173899 -1.8545607e-21)
(0.42941393 -0.050616722 -4.0581709e-21)
(0.43639337 -0.049379674 5.304759e-21)
(0.44367184 -0.048045199 3.6682082e-21)
(0.45122212 -0.04662952 -3.240829e-21)
(0.45901666 -0.045147786 3.1379481e-21)
(0.46702794 -0.04361413 2.7666792e-21)
(0.47522877 -0.042041697 -3.211112e-21)
(0.48359254 -0.040442672 3.7056554e-22)
(0.4920934 -0.038828287 -3.2571636e-21)
(0.50070648 -0.037208834 7.2454104e-21)
(0.50940797 -0.035593675 6.1080567e-21)
(0.51817526 -0.033991249 8.0973089e-22)
(0.52698705 -0.03240909 -1.7683222e-21)
(0.53582336 -0.03085385 3.7021738e-21)
(0.54466561 -0.029331324 7.1885129e-21)
(0.55349664 -0.027846483 2.3049292e-21)
(0.56230075 -0.026403523 3.316483e-21)
(0.57106362 -0.025005904 1.9956188e-21)
(0.57977241 -0.023656413 7.4557832e-22)
(0.58841567 -0.022357217 -2.6374534e-22)
(0.59698335 -0.021109932 2.7203078e-21)
(0.6054668 -0.019915689 6.1992073e-22)
(0.61385879 -0.018775207 2.9487716e-22)
(0.62215342 -0.017688891 5.6232373e-23)
(0.63034649 -0.016656865 9.8966249e-22)
(0.63843459 -0.015679274 4.7019981e-23)
(0.64641847 -0.014755819 4.4247262e-22)
(0.65429341 -0.013887952 -1.2621748e-22)
(0.66207966 -0.013072906 -2.7734685e-22)
(0.66973449 -0.012324309 -1.5218542e-22)
(0.67741336 -0.011610792 -4.220759e-22)
(0.68472315 -0.011053491 1.6139114e-22)
(0.69287133 -0.010332282 -1.2723501e-22)
(0.69859415 -0.010509378 -5.0126414e-22)
(0.71095648 -0.0088817052 2.4586841e-22)
(0.50927423 -0.035974259 3.647149e-21)
(0.49953032 -0.042960638 -1.8958286e-20)
(0.49627548 -0.047383434 -2.3083845e-21)
(0.49555583 -0.049736738 5.4869553e-21)
(0.49416943 -0.051818001 3.0528041e-21)
(0.49269563 -0.053705365 -4.9892201e-23)
(0.49181218 -0.055187601 6.1896673e-21)
(0.49151439 -0.056265349 7.6250997e-21)
(0.49171154 -0.056990481 9.8580389e-21)
(0.49241059 -0.05739552 -1.1250039e-20)
(0.49363091 -0.057506246 -2.1579417e-20)
(0.49536764 -0.05734836 -3.9353455e-21)
(0.49760453 -0.056947072 1.5938139e-20)
(0.50032287 -0.056326948 1.2808955e-20)
(0.50350151 -0.05551167 -5.9066941e-21)
(0.50711637 -0.054523782 1.3817048e-21)
(0.51114124 -0.053384718 -3.6600826e-21)
(0.51554858 -0.05211487 2.2443738e-21)
(0.52031011 -0.050733577 -2.9123015e-22)
(0.52539717 -0.049259093 -1.865409e-21)
(0.53078107 -0.047708587 7.8265856e-21)
(0.53643346 -0.046098135 -2.9308756e-22)
(0.54232651 -0.044442713 4.1818089e-22)
(0.5484332 -0.042756185 -6.5646652e-22)
(0.5547274 -0.041051304 -4.3029361e-21)
(0.56118409 -0.039339707 4.2085136e-21)
(0.56777943 -0.037631926 1.903121e-21)
(0.57449085 -0.035937401 -3.3081898e-21)
(0.58129711 -0.034264503 -4.1116411e-21)