/*--------------------------------*- C++ -*----------------------------------*\
  =========                 |
  \\      /  F ield         | OpenFOAM: The Open Source CFD Toolbox
   \\    /   O peration     | Website:  https://openfoam.org
    \\  /    A nd           | Version:  6
     \\/     M anipulation  |
\*---------------------------------------------------------------------------*/
FoamFile
{
    version     2.0;
    format      ascii;
    class       volScalarField;
    location    "131";
    object      p;
}
// * * * * * * * * * * * * * * * * * * * * * * * * * * * * * * * * * * * * * //

dimensions      [0 2 -2 0 0 0 0];

internalField   nonuniform List<scalar> 
9200
(
-0.37797206
-0.36662546
-0.35653169
-0.34758233
-0.33884255
-0.33032625
-0.3221117
-0.31416638
-0.30642299
-0.29880959
-0.29125322
-0.28368485
-0.2760463
-0.26829758
-0.26042743
-0.25247116
-0.24450508
-0.23661703
-0.22983191
-0.22843172
-0.39583291
-0.38203512
-0.36999771
-0.35952855
-0.34941674
-0.33964375
-0.33027832
-0.32125719
-0.31248086
-0.30385097
-0.29527434
-0.28666877
-0.27797056
-0.26914053
-0.26016958
-0.25108268
-0.24190967
-0.23265029
-0.22398745
-0.21808708
-0.41411073
-0.39783892
-0.3839038
-0.37198527
-0.36055675
-0.34954907
-0.33900969
-0.3288369
-0.31889701
-0.30906918
-0.29924908
-0.28935467
-0.27933286
-0.26916271
-0.25885524
-0.24844911
-0.23798311
-0.22746619
-0.21729759
-0.20859237
-0.43237146
-0.41364475
-0.39787728
-0.38457101
-0.37184602
-0.35956618
-0.34774983
-0.33625628
-0.32492561
-0.31362981
-0.30227423
-0.29080065
-0.27919037
-0.26746205
-0.25566498
-0.24386897
-0.23214058
-0.2205187
-0.20927077
-0.1991379
-0.44998516
-0.42890658
-0.4114235
-0.39680656
-0.3827948
-0.36917433
-0.35593421
-0.34290545
-0.32992242
-0.31687705
-0.30371405
-0.29042725
-0.27705542
-0.26367241
-0.25037371
-0.23726223
-0.22442805
-0.21192968
-0.19995534
-0.18901244
-0.46612734
-0.44290541
-0.42388237
-0.4080442
-0.39273911
-0.37767551
-0.36282564
-0.34801785
-0.33311491
-0.31806507
-0.30288526
-0.28764606
-0.27245739
-0.25745038
-0.24275921
-0.22850589
-0.21478507
-0.20165265
-0.18923459
-0.1778677
-0.47979284
-0.45475492
-0.43442923
-0.41746992
-0.4008512
-0.38421964
-0.36755844
-0.35073402
-0.33368205
-0.31644648
-0.29914467
-0.28193776
-0.26500592
-0.24852481
-0.23264688
-0.21748999
-0.20312986
-0.18959758
-0.17696002
-0.16541836
-0.48981787
-0.46342495
-0.44210728
-0.4241504
-0.40620424
-0.3878874
-0.36923674
-0.35020895
-0.33086106
-0.31136765
-0.29196382
-0.2729009
-0.25441469
-0.23670205
-0.21990774
-0.20412157
-0.18938074
-0.17567709
-0.16301952
-0.15149529
-0.49486019
-0.46764023
-0.44563054
-0.42674987
-0.40742226
-0.38730046
-0.36653497
-0.34522998
-0.32360344
-0.30197613
-0.28069432
-0.26007686
-0.24038444
-0.22180379
-0.20444571
-0.18835332
-0.17351453
-0.15987768
-0.14739769
-0.13606431
-0.49356937
-0.46598387
-0.44345141
-0.42360299
-0.40278349
-0.3807634
-0.35787227
-0.33440766
-0.31076218
-0.28738595
-0.26469912
-0.24304266
-0.22265933
-0.20369278
-0.18619942
-0.17016709
-0.15553478
-0.14221304
-0.13011002
-0.11913059
-0.26508896
-0.26976329
-0.27227172
-0.27302286
-0.27280873
-0.27181619
-0.27012672
-0.26782784
-0.26499177
-0.26167323
-0.25791627
-0.2537584
-0.24923273
-0.24436934
-0.23919648
-0.23374305
-0.22803992
-0.22210762
-0.21594518
-0.20963813
-0.26782164
-0.2720807
-0.27428238
-0.27481484
-0.27441764
-0.27326889
-0.27144814
-0.26903924
-0.26611084
-0.26271482
-0.25889281
-0.25468022
-0.25010827
-0.24520502
-0.23999615
-0.23450951
-0.22878345
-0.22283687
-0.21656246
-0.20993427
-0.27315117
-0.27659816
-0.27820185
-0.27830658
-0.27755045
-0.27609614
-0.2740197
-0.2713977
-0.26829185
-0.26474841
-0.26080419
-0.25649037
-0.2518344
-0.24686051
-0.24158951
-0.23604641
-0.23028097
-0.22431095
-0.21783722
-0.21060204
-0.28083768
-0.28312214
-0.28386028
-0.28333629
-0.28204724
-0.28013626
-0.27767542
-0.27473143
-0.27135634
-0.26758857
-0.26345807
-0.25898993
-0.25420605
-0.24912496
-0.24376068
-0.23813303
-0.23230374
-0.22629517
-0.21956181
-0.21147611
-0.29057887
-0.2914096
-0.29104616
-0.2897049
-0.28771397
-0.28519573
-0.28221904
-0.27883935
-0.27509727
-0.27102201
-0.26663525
-0.2619538
-0.25699206
-0.25176162
-0.24626837
-0.2405238
-0.23459758
-0.22852528
-0.22150223
-0.21238607
-0.30206095
-0.30120834
-0.29954208
-0.29721149
-0.29435903
-0.2910876
-0.28746514
-0.28353605
-0.27932898
-0.27486146
-0.27014436
-0.26518526
-0.25998973
-0.25456094
-0.24889564
-0.242994
-0.23692573
-0.23074578
-0.22341836
-0.21316497
-0.31500499
-0.31229333
-0.30915731
-0.30568639
-0.30182858
-0.29767058
-0.29328322
-0.2886995
-0.28393338
-0.27898988
-0.27386843
-0.26856529
-0.26307546
-0.25739254
-0.25150421
-0.24539884
-0.23913892
-0.23280207
-0.22518449
-0.21380249
-0.32919496
-0.32448952
-0.31975
-0.3150157
-0.310036
-0.30488431
-0.2996347
-0.29430796
-0.28890329
-0.2834113
-0.27781706
-0.27210257
-0.26624918
-0.26023846
-0.2540484
-0.24765844
-0.24112833
-0.23458164
-0.22676584
-0.21448682
-0.3444778
-0.33766452
-0.33120974
-0.32511275
-0.31891693
-0.31268107
-0.30648438
-0.30033494
-0.29421432
-0.28809552
-0.28194568
-0.27572836
-0.26940581
-0.26293929
-0.25628435
-0.24939312
-0.2422899
-0.23508089
-0.22650876
-0.21307113
-0.36075464
-0.3517106
-0.34342434
-0.33586008
-0.32834175
-0.32091336
-0.31365914
-0.30657215
-0.29961386
-0.29273799
-0.28589341
-0.27902694
-0.27208627
-0.26501994
-0.25777213
-0.25027841
-0.24248165
-0.23417524
-0.22370833
-0.20803947
-0.20248727
-0.19353877
-0.18458532
-0.17569091
-0.16680183
-0.15795977
-0.14921824
-0.14061229
-0.13217121
-0.12392361
-0.11589529
-0.10810843
-0.10058217
-0.093332876
-0.08637413
-0.079716818
-0.073369235
-0.067337183
-0.061624074
-0.056231038
-0.051157049
-0.046399057
-0.04195215
-0.03780971
-0.033963593
-0.030404318
-0.027121257
-0.024102831
-0.021336705
-0.018809979
-0.016509377
-0.014421415
-0.012532573
-0.010829448
-0.0092988947
-0.0079281575
-0.0067049989
-0.0056178
-0.0046557386
-0.0038087118
-0.0030681586
-0.0024250626
-0.0018771613
-0.0014077572
-0.0010525628
-0.00070161342
-0.00069457709
-8.4120743e-05
-0.0017133855
0.002457803
-0.20349734
-0.19415159
-0.18508909
-0.17620902
-0.16730192
-0.15842967
-0.14966371
-0.1410355
-0.13257185
-0.12430193
-0.1162518
-0.10844356
-0.10089632
-0.093626499
-0.086647769
-0.079971071
-0.073604762
-0.067554707
-0.061824368
-0.056414917
-0.051325359
-0.046552668
-0.042091942
-0.037936564
-0.034078386
-0.030507911
-0.027214491
-0.024186519
-0.021411631
-0.018876891
-0.016568982
-0.014474383
-0.012579532
-0.010870981
-0.0093355429
-0.0079604192
-0.00673333
-0.005642615
-0.0046774114
-0.0038275768
-0.0030845104
-0.0024391593
-0.001889204
-0.0014179548
-0.0010608451
-0.00070856084
-0.00069800358
-8.9962763e-05
-0.0016988384
0.0024291851
-0.20561611
-0.19541971
-0.18613978
-0.17732839
-0.1683977
-0.15946477
-0.15065119
-0.14197896
-0.13346829
-0.12515046
-0.11705279
-0.10919725
-0.10160305
-0.094286977
-0.087262963
-0.080542174
-0.074133176
-0.068042019
-0.06227232
-0.056825371
-0.051700268
-0.046894048
-0.04240184
-0.038217039
-0.034331481
-0.030735638
-0.027418811
-0.024369329
-0.021574749
-0.019022054
-0.016697831
-0.014588462
-0.012680284
-0.010959746
-0.0094135578
-0.0080288194
-0.0067931509
-0.0056947944
-0.0047227928
-0.0038669118
-0.00311846
-0.0024682996
-0.001913993
-0.0014388446
-0.0010777592
-0.00072262507
-0.00070504129
-0.00010150375
-0.0016702832
0.0023725635
-0.20868482
-0.19711171
-0.18751081
-0.17889839
-0.16997831
-0.16096869
-0.15210098
-0.14337981
-0.1348101
-0.12642824
-0.11826526
-0.11034315
-0.10268145
-0.095297774
-0.088206757
-0.081420092
-0.074946804
-0.06879335
-0.062963681
-0.057459358
-0.05227968
-0.047421831
-0.042881037
-0.038650743
-0.034722792
-0.031087626
-0.027734486
-0.024651617
-0.021826468
-0.019245895
-0.016896347
-0.014764058
-0.012835209
-0.011096092
-0.0095332552
-0.0081336407
-0.006884712
-0.0057745585
-0.0047920753
-0.003926884
-0.0031701523
-0.0025126085
-0.0019516355
-0.001470518
-0.0011033833
-0.0007438669
-0.00071578676
-0.00011869389
-0.0016284647
0.0022891627
-0.21247682
-0.19895706
-0.18893295
-0.18072132
-0.17189723
-0.16281359
-0.15390283
-0.14514904
-0.13652574
-0.12807651
-0.11984091
-0.11184204
-0.10409987
-0.096633467
-0.089458868
-0.08258879
-0.076033102
-0.069799
-0.063891058
-0.058311335
-0.053059525
-0.04813311
-0.043527529
-0.039236362
-0.035251523
-0.031563462
-0.028161382
-0.02503344
-0.022166968
-0.019548672
-0.017164831
-0.015001488
-0.013044624
-0.011280322
-0.0096949192
-0.008275144
-0.0070082499
-0.00588212
-0.0048854488
-0.0040076625
-0.0032397369
-0.0025722182
-0.0020022473
-0.0015130764
-0.0011378094
-0.0007723548
-0.00073038263
-0.0001414292
-0.0015745232
0.0021808692
-0.2166448
-0.20067526
-0.19013706
-0.182564
-0.17398213
-0.1648561
-0.15592465
-0.14717267
-0.13852248
-0.13001927
-0.12171638
-0.11364143
-0.10581535
-0.098259105
-0.090990954
-0.08402541
-0.077373755
-0.071044393
-0.065042922
-0.059372248
-0.054032743
-0.049022419
-0.044337116
-0.039970696
-0.035915253
-0.032161332
-0.028698144
-0.025513799
-0.022595518
-0.019929855
-0.0175029
-0.01530048
-0.013308338
-0.011512306
-0.0098984638
-0.0084532764
-0.0071637365
-0.0060174696
-0.0050029188
-0.004109264
-0.0033272392
-0.002647161
-0.002065866
-0.0015665618
-0.0011810878
-0.00080812747
-0.00074897955
-0.0001695648
-0.0015099019
0.0020501373
-0.22079119
-0.20208474
-0.19091141
-0.18414872
-0.17603248
-0.16696923
-0.15805135
-0.14933848
-0.14070446
-0.13217865
-0.12382681
-0.11568642
-0.10778177
-0.10013616
-0.092770793
-0.085702946
-0.078946112
-0.072510511
-0.066403288
-0.06062864
-0.055187987
-0.050080176
-0.045301692
-0.040846878
-0.03670816
-0.032876288
-0.029340571
-0.026089119
-0.023109078
-0.020386859
-0.017908362
-0.015659176
-0.013624782
-0.011790725
-0.010142784
-0.0086671193
-0.0073504145
-0.0061799895
-0.0051439875
-0.0042312943
-0.0034323541
-0.002737208
-0.0021423274
-0.0016308658
-0.0012331631
-0.00085115931
-0.00077170981
-0.00020294574
-0.0014362454
0.0018998579
-0.22465514
-0.20358112
-0.19148034
-0.18528805
-0.17783404
-0.16906559
-0.16023933
-0.15159025
-0.1430097
-0.13449902
-0.12612302
-0.11793182
-0.10995747
-0.10222679
-0.09476434
-0.08759091
-0.080723
-0.07417327
-0.067950914
-0.062061857
-0.05650894
-0.051292158
-0.046408899
-0.041854198
-0.037620984
-0.033700346
-0.030081789
-0.026753498
-0.02370259
-0.020915362
-0.01837753
-0.016074445
-0.013991306
-0.012113347
-0.010426014
-0.0089151238
-0.0075670111
-0.0063686469
-0.0053078309
-0.0043731099
-0.0035545933
-0.0028420042
-0.0022313892
-0.0017058435
-0.0012939758
-0.00090144773
-0.00079875739
-0.00024147613
-0.0013553473
0.0017333208
-0.2258944
-0.20540903
-0.19253938
-0.18591827
-0.17895169
-0.17076487
-0.16221508
-0.15369512
-0.14522159
-0.13678797
-0.12844189
-0.12024122
-0.11222911
-0.10443821
-0.096897049
-0.089630515
-0.082658972
-0.075998356
-0.069660641
-0.063654139
-0.057983721
-0.052651062
-0.047654922
-0.042991426
-0.038654346
-0.034635388
-0.030924483
-0.027510068
-0.024379369
-0.021518672
-0.018913576
-0.016549235
-0.014410587
-0.012482557
-0.010750246
-0.0091991017
-0.0078150787
-0.0065847608
-0.0054955614
-0.0045356435
-0.0036947345
-0.0029621932
-0.0023335796
-0.0017919166
-0.0013638755
-0.00095920912
-0.0008305035
-0.0002848588
-0.0012693608
0.0015547979
-0.21603366
-0.20465504
-0.19365705
-0.18556954
-0.17851361
-0.17110106
-0.16315752
-0.15500347
-0.14681783
-0.13862668
-0.13045772
-0.12236844
-0.11441434
-0.10663834
-0.099076293
-0.091759741
-0.084715354
-0.077964599
-0.071524176
-0.065406438
-0.059619686
-0.054168465
-0.049053897
-0.044274016
-0.039824104
-0.035697027
-0.031883567
-0.028372753
-0.025152176
-0.022208294
-0.019526726
-0.017092518
-0.014890397
-0.012905
-0.011121083
-0.0095237079
-0.0080984157
-0.0068313631
-0.0057095314
-0.0047206486
-0.003854008
-0.0030985495
-0.002449289
-0.0018891312
-0.0014426871
-0.0010239131
-0.00086675316
-0.00033142838
-0.0011808452
0.001369795
-0.19389571
-0.19860257
-0.19332926
-0.18442492
-0.17692226
-0.16991442
-0.16241414
-0.15455694
-0.14660869
-0.13863257
-0.13064815
-0.12270833
-0.11487239
-0.10718767
-0.099693179
-0.092423404
-0.085407982
-0.078671172
-0.072232193
-0.066105661
-0.060301902
-0.054827251
-0.049684396
-0.044872723
-0.040388676
-0.0362261
-0.032376595
-0.028829858
-0.025574018
-0.022595953
-0.019881598
-0.017416226
-0.015184716
-0.013171788
-0.011362227
-0.0097410781
-0.0082938301
-0.0070065548
-0.0058661215
-0.0048601304
-0.0039776969
-0.0032076458
-0.0025445299
-0.0019716917
-0.0015109765
-0.0010826673
-0.00089796518
-0.00037795478
-0.0010903688
0.0011862219
-0.18334668
-0.18916736
-0.18569433
-0.17695564
-0.16975278
-0.16349669
-0.1567969
-0.1496536
-0.14236272
-0.1349993
-0.12757307
-0.12013262
-0.11273966
-0.10544524
-0.098291932
-0.091318039
-0.084557243
-0.078037809
-0.071782793
-0.065810451
-0.060134523
-0.054764521
-0.049706058
-0.044961203
-0.040528837
-0.036405011
-0.032583307
-0.029055192
-0.025810364
-0.022837082
-0.020122488
-0.0176529
-0.015414091
-0.013391542
-0.011570677
-0.009937068
-0.0084766326
-0.0071757842
-0.0060216477
-0.0050020256
-0.0041061046
-0.0033228914
-0.0026464947
-0.002061278
-0.0015853613
-0.0011480278
-0.00093158333
-0.0004325914
-0.00098936651
0.00098828097
-0.17460831
-0.17782953
-0.17555242
-0.1685318
-0.16217938
-0.15661721
-0.15068422
-0.14427098
-0.13764415
-0.13089883
-0.12404692
-0.1171308
-0.11021097
-0.10334031
-0.096563513
-0.089921252
-0.08345012
-0.077181601
-0.071142044
-0.065352987
-0.059831392
-0.054589874
-0.049636991
-0.04497758
-0.040613094
-0.036541957
-0.032759918
-0.029260407
-0.026034885
-0.023073184
-0.020363836
-0.017894373
-0.015651623
-0.013621973
-0.011791613
-0.010146758
-0.0086738544
-0.0073597428
-0.0061918758
-0.0051583196
-0.0042483727
-0.0034512738
-0.0027606606
-0.0021620483
-0.0016694586
-0.001222091
-0.00097062836
-0.00049411322
-0.00088082129
0.000771448
-0.16492994
-0.16554247
-0.16371098
-0.15876644
-0.15364398
-0.14882446
-0.14368259
-0.13808108
-0.1321973
-0.12613209
-0.11991312
-0.11358081
-0.10719231
-0.10080115
-0.094453831
-0.088193048
-0.082057879
-0.076082773
-0.070297273
-0.064726198
-0.059389812
-0.054303983
-0.049480422
-0.044926967
-0.040647905
-0.036644297
-0.032914331
-0.029453663
-0.026255773
-0.023312308
-0.020613409
-0.018148033
-0.015904247
-0.01386951
-0.012030929
-0.010375491
-0.0088902816
-0.007562666
-0.0063805035
-0.0053321882
-0.0044071812
-0.003594988
-0.0028887963
-0.0022752763
-0.0017643298
-0.0013050522
-0.0010163355
-0.00055998421
-0.00077230103
0.00054579578
-0.15436049
-0.15309319
-0.15128375
-0.1480541
-0.14422486
-0.1402102
-0.13586538
-0.13110784
-0.12602103
-0.12068802
-0.11515195
-0.10945582
-0.10365263
-0.097794769
-0.091929682
-0.086101314
-0.080350493
-0.074714065
-0.069224401
-0.063909392
-0.058792514
-0.053892911
-0.049225547
-0.044801436
-0.040627913
-0.036708927
-0.033045366
-0.029635389
-0.026474765
-0.023557214
-0.020874743
-0.018417962
-0.016176396
-0.014138771
-0.012293285
-0.010627852
-0.0091303318
-0.0077887292
-0.0065914076
-0.0055271677
-0.004585699
-0.0037568104
-0.0030332941
-0.0024029181
-0.0018716413
-0.0013979381
-0.0010701982
-0.00062956436
-0.0006698458
0.00031944023
-0.14257367
-0.14051461
-0.13881973
-0.13686439
-0.13420602
-0.13102736
-0.12746966
-0.12353677
-0.11925078
-0.11466754
-0.10983795
-0.1048067
-0.099622218
-0.094334535
-0.088990927
-0.083635566
-0.078309918
-0.073052233
-0.067896951
-0.062874463
-0.058011036
-0.053328807
-0.048845843
-0.044576286
-0.040530553
-0.036715584
-0.03313512
-0.029790003
-0.026678499
-0.023796623
-0.021138465
-0.018696508
-0.016461943
-0.01442496
-0.01257503
-0.010901158
-0.0093921282
-0.0080367134
-0.0068238942
-0.0057429701
-0.0047839411
-0.0039369641
-0.00319452
-0.0025453836
-0.0019919024
-0.0015010574
-0.0011331929
-0.00070240345
-0.00057944996
0.0001010428
-0.12987939
-0.12794954
-0.12660276
-0.12555952
-0.12386477
-0.12149578
-0.1186984
-0.11554417
-0.11202994
-0.10818526
-0.10406008
-0.099700771
-0.095150297
-0.090453577
-0.085656523
-0.080802776
-0.075933448
-0.071087056
-0.066299096
-0.061601644
-0.057023105
-0.052588093
-0.048317395
-0.044228022
-0.040333324
-0.036643171
-0.033164166
-0.029899909
-0.026851277
-0.024016724
-0.02139259
-0.018973411
-0.016752225
-0.014720867
-0.012870254
-0.011190647
-0.009671904
-0.0083037029
-0.007075763
-0.0059779851
-0.0050007746
-0.004134689
-0.0033720074
-0.0027023993
-0.0021250624
-0.0016143311
-0.0012059901
-0.00077807705
-0.00050701903
-0.00010007409
-0.1169934
-0.11564375
-0.11478565
-0.11439821
-0.11345902
-0.11182525
-0.10973865
-0.10730159
-0.10450734
-0.10136774
-0.097924872
-0.094223067
-0.090302168
-0.086201479
-0.081962077
-0.077625875
-0.073233004
-0.06882131
-0.064426273
-0.060080676
-0.055814239
-0.051653364
-0.047620993
-0.04373656
-0.040016024
-0.036471954
-0.033113688
-0.029947523
-0.026976952
-0.024202925
-0.021624125
-0.01923726
-0.017037354
-0.015018037
-0.013171823
-0.011490381
-0.0099647883
-0.0085857611
-0.0073438831
-0.0062297653
-0.0052343218
-0.0043485717
-0.0035647209
-0.0028732173
-0.0022706619
-0.0017374258
-0.0012889616
-0.00085636831
-0.00045757968
-0.00027505004
-0.10445884
-0.10377573
-0.10343351
-0.1035401
-0.10318897
-0.1021925
-0.1007475
-0.098957653
-0.096819513
-0.094335382
-0.091537586
-0.088465102
-0.08515327
-0.081637056
-0.077952953
-0.0741385
-0.070231423
-0.066268198
-0.06228345
-0.058309722
-0.054377153
-0.05051314
-0.046742098
-0.04308531
-0.039560869
-0.036183684
-0.032965551
-0.029915281
-0.027038873
-0.024339726
-0.021818874
-0.019475246
-0.017305932
-0.015306457
-0.013471053
-0.01179292
-0.010264482
-0.00887762
-0.007623903
-0.00649476
-0.005481722
-0.0045763382
-0.0037708813
-0.0030564743
-0.0024277188
-0.0018696792
-0.0013820664
-0.00093727661
-0.00043450401
-0.00041673011
-0.09256131
-0.092464274
-0.092590478
-0.093084715
-0.09319493
-0.092733322
-0.091848962
-0.090631803
-0.089080666
-0.087193099
-0.084992346
-0.082510359
-0.079777212
-0.076822778
-0.073679089
-0.070379557
-0.066957949
-0.063448068
-0.059882927
-0.056294059
-0.052711182
-0.04916188
-0.045671308
-0.042261952
-0.038953482
-0.035762674
-0.032703407
-0.029786711
-0.02702088
-0.024411618
-0.021962229
-0.019673831
-0.017545597
-0.015574993
-0.013758039
-0.012089559
-0.010563422
-0.0091727832
-0.0079103028
-0.006768331
-0.0057391203
-0.0048148242
-0.0039879256
-0.0032501463
-0.0025946838
-0.0020100489
-0.0014847735
-0.0010209133
-0.00043892816
-0.00052079801
-0.081441156
-0.081800123
-0.082308757
-0.08310559
-0.083576646
-0.083552148
-0.083143095
-0.0824216
-0.081386065
-0.080031122
-0.078372368
-0.076434393
-0.074241506
-0.071818306
-0.069191722
-0.066390787
-0.06344541
-0.060385787
-0.057242235
-0.054044532
-0.05082126
-0.047599445
-0.04440425
-0.041258695
-0.038183422
-0.03519655
-0.032313586
-0.02954741
-0.02690831
-0.02440407
-0.022040104
-0.019819619
-0.017743813
-0.015812085
-0.014022265
-0.012370846
-0.010853215
-0.0094638785
-0.0081966766
-0.0070449715
-0.0060018344
-0.0050600982
-0.004212596
-0.0034516058
-0.0027694771
-0.0021571072
-0.0015960338
-0.001107345
-0.00046946214
-0.0005866072
-0.071158843
-0.071845756
-0.072640759
-0.07366263
-0.074408855
-0.074731489
-0.074713411
-0.074410144
-0.073818
-0.072929195
-0.071752997
-0.070307071
-0.068609858
-0.066680639
-0.064541154
-0.06221557
-0.0597296
-0.05710976
-0.054383028
-0.051576564
-0.048717124
-0.045830511
-0.042941221
-0.040072144
-0.037244281
-0.034476531
-0.031785536
-0.029185595
-0.026688633
-0.024304222
-0.022039656
-0.019900064
-0.017888555
-0.016006393
-0.014253192
-0.012627119
-0.011125106
-0.0097430643
-0.0084760792
-0.0073185973
-0.0062645935
-0.0053076535
-0.0044410911
-0.0036577328
-0.0029495703
-0.0023090641
-0.001714293
-0.0011964287
-0.00052229116
-0.00061747583
-0.061726293
-0.06263396
-0.063626655
-0.064802554
-0.065748515
-0.066337084
-0.066630273
-0.06666987
-0.066449733
-0.065959932
-0.065204512
-0.064195007
-0.062944283
-0.061466454
-0.059778175
-0.057898693
-0.055849184
-0.05365217
-0.051331098
-0.048909998
-0.046413114
-0.0438644
-0.041287071
-0.038703261
-0.036133724
-0.033597572
-0.031112059
-0.028692437
-0.026351859
-0.024101343
-0.021949781
-0.019903996
-0.017968842
-0.016147326
-0.01444077
-0.012848977
-0.011370422
-0.010002434
-0.0087413862
-0.0075828627
-0.0065218111
-0.0055526382
-0.0046692558
-0.0038650627
-0.0031321002
-0.0024638164
-0.0018375498
-0.0012876772
-0.00059171218
-0.00062024248
-0.053128711
-0.054172986
-0.055288868
-0.056556835
-0.057636848
-0.058419626
-0.058951374
-0.059262989
-0.059346284
-0.059189638
-0.05879288
-0.05816235
-0.057305933
-0.056232958
-0.054955277
-0.05348738
-0.051845896
-0.050049133
-0.048116752
-0.04606941
-0.043928395
-0.041715252
-0.039451351
-0.037157506
-0.034853648
-0.032558538
-0.030289513
-0.028062289
-0.025890807
-0.023787141
-0.02176145
-0.019821981
-0.017975109
-0.01622542
-0.014575819
-0.013027668
-0.011580937
-0.010234364
-0.0089856202
-0.007831459
-0.0067678534
-0.005790091
-0.004892784
-0.0040699506
-0.0033140014
-0.0026190215
-0.0019634606
-0.0013802024
-0.00067103454
-0.00060408153
-0.04533531
-0.046451909
-0.047631738
-0.048940765
-0.050099578
-0.051014976
-0.0517211
-0.052240405
-0.052563357
-0.052677254
-0.052578699
-0.052269831
-0.051754322
-0.051037297
-0.050126273
-0.049031324
-0.047764728
-0.046340629
-0.044774776
-0.04308426
-0.04128717
-0.039402254
-0.037448563
-0.035445091
-0.033410425
-0.031362447
-0.029318054
-0.027292927
-0.025301336
-0.023355991
-0.021467951
-0.019646565
-0.017899466
-0.016232601
-0.014650296
-0.013155347
-0.01174914
-0.010431773
-0.0092021994
-0.0080583515
-0.0069972605
-0.0060151437
-0.0051073991
-0.004268725
-0.0034921368
-0.0027721876
-0.0020894829
-0.0014727493
-0.00075366017
-0.00057879003
-0.038304707
-0.03944583
-0.0406445
-0.04195483
-0.043147889
-0.044144729
-0.044970388
-0.04564091
-0.046146121
-0.046472893
-0.046615561
-0.046573048
-0.046345657
-0.045935025
-0.045344941
-0.04458156
-0.043653183
-0.042570014
-0.041343994
-0.039988599
-0.038518584
-0.03694968
-0.035298293
-0.033581188
-0.031815166
-0.030016753
-0.028201921
-0.026385835
-0.024582624
-0.022805202
-0.021065128
-0.019372499
-0.0177359
-0.016162381
-0.014657478
-0.01322526
-0.011868404
-0.010588289
-0.0093851027
-0.0082579399
-0.0072049014
-0.006223168
-0.00530899
-0.0044578107
-0.0036634095
-0.0029207688
-0.0022130389
-0.0015638093
-0.00083407484
-0.00055298414
-0.03198947
-0.033120822
-0.034305389
-0.035587576
-0.036780458
-0.037817682
-0.038717518
-0.039491258
-0.040128695
-0.040616868
-0.040948707
-0.04112085
-0.041131081
-0.040978306
-0.04066328
-0.040188848
-0.039559831
-0.038782882
-0.037866391
-0.036820362
-0.035656224
-0.034386613
-0.033025109
-0.031585972
-0.030083871
-0.028533586
-0.026949737
-0.025346525
-0.023737496
-0.022135333
-0.020551682
-0.018997013
-0.017480523
-0.016010071
-0.014592152
-0.013231901
-0.01193313
-0.010698379
-0.0095289857
-0.0084251649
-0.0073860729
-0.0064098685
-0.0054936992
-0.0046338112
-0.0038248453
-0.0030622532
-0.0023316672
-0.0016517715
-0.00090848488
-0.00053270828
-0.026339544
-0.027437663
-0.028585227
-0.029818668
-0.030985982
-0.03203186
-0.032969605
-0.033807056
-0.034534447
-0.035139457
-0.03561434
-0.035954273
-0.036155302
-0.03621435
-0.036129847
-0.035901989
-0.035532702
-0.035025578
-0.034385849
-0.033620326
-0.032737287
-0.031746328
-0.030658164
-0.029484422
-0.028237409
-0.026929871
-0.025574731
-0.024184848
-0.022772781
-0.02135057
-0.01992955
-0.018520179
-0.017131908
-0.015773083
-0.014450874
-0.013171244
-0.011938937
-0.010757498
-0.0096293044
-0.0085556087
-0.0075365819
-0.0065713511
-0.0056579812
-0.0047935638
-0.0039736497
-0.0031942372
-0.0024431375
-0.0017350675
-0.00097494233
-0.00052084941
-0.021304553
-0.022354486
-0.023450228
-0.024621622
-0.025745692
-0.02677674
-0.027724438
-0.028594162
-0.029376909
-0.030061335
-0.030639593
-0.031106071
-0.031455765
-0.031684288
-0.031788419
-0.031766362
-0.031617762
-0.031343702
-0.03094673
-0.030430855
-0.0298015
-0.029065413
-0.028230538
-0.02730587
-0.026301267
-0.025227257
-0.024094828
-0.022915202
-0.021699614
-0.020459105
-0.019204321
-0.017945338
-0.016691508
-0.015451325
-0.014232334
-0.013041053
-0.011882931
-0.010762326
-0.009682503
-0.0086456439
-0.007652861
-0.0067042116
-0.0057986704
-0.0049341946
-0.0041072581
-0.0033144893
-0.002545511
-0.001812273
-0.0010329902
-0.00051744464
-0.016835681
-0.017829012
-0.018864449
-0.019966336
-0.021035853
-0.022035605
-0.022972609
-0.023850495
-0.024661212
-0.025394599
-0.026043118
-0.026600896
-0.027062428
-0.027422593
-0.027677117
-0.027822815
-0.027857646
-0.027780749
-0.027592504
-0.027294573
-0.026889903
-0.026382696
-0.025778336
-0.0250833
-0.024305033
-0.023451799
-0.022532512
-0.021556562
-0.02053361
-0.019473403
-0.018385583
-0.017279508
-0.01616409
-0.015047648
-0.013937787
-0.012841298
-0.01176408
-0.010711088
-0.0096862941
-0.0086926674
-0.0077321575
-0.0068056842
-0.0059130953
-0.0050532074
-0.0042234055
-0.0034210187
-0.0026371618
-0.001882159
-0.0010830411
-0.00052063566
-0.012886737
-0.013819962
-0.014791474
-0.015820963
-0.016829745
-0.017787567
-0.018699476
-0.019567861
-0.020385702
-0.021144111
-0.021836127
-0.022455992
-0.022998118
-0.023457103
-0.023828115
-0.024107107
-0.024290889
-0.024377185
-0.024364723
-0.024253293
-0.024043799
-0.02373826
-0.023339802
-0.022852604
-0.022281837
-0.021633559
-0.020914597
-0.020132412
-0.019294938
-0.018410421
-0.017487247
-0.016533778
-0.015558189
-0.01456832
-0.013571539
-0.012574624
-0.011583663
-0.010603973
-0.0096400299
-0.0086954233
-0.007772808
-0.0068738688
-0.0059992623
-0.0051486305
-0.0043202382
-0.0035121634
-0.0027167866
-0.0019437142
-0.0011257737
-0.00052781315
-0.0094157069
-0.010288862
-0.011196401
-0.012154018
-0.013099847
-0.014009751
-0.014887293
-0.015733963
-0.016543761
-0.017309074
-0.018023669
-0.018682145
-0.019279123
-0.019809256
-0.020267536
-0.020649478
-0.020951197
-0.021169479
-0.021301866
-0.021346745
-0.02130341
-0.021172102
-0.020954033
-0.020651381
-0.020267264
-0.01980569
-0.019271482
-0.018670181
-0.018007939
-0.017291384
-0.016527478
-0.015723378
-0.014886283
-0.014023292
-0.013141271
-0.012246716
-0.01134565
-0.010443511
-0.0095450674
-0.0086543431
-0.0077745443
-0.0069080001
-0.0060560847
-0.0052192066
-0.0043964633
-0.0035867026
-0.0027834317
-0.0019961655
-0.0011617564
-0.00053652784
-0.0063845913
-0.0072003404
-0.0080465602
-0.0089354754
-0.0098192822
-0.01067906
-0.011517223
-0.012334585
-0.013126103
-0.013885373
-0.014606944
-0.015285912
-0.015917286
-0.016495998
-0.017017136
-0.017476102
-0.017868678
-0.018191098
-0.018440134
-0.018613183
-0.018708345
-0.018724482
-0.018661263
-0.018519192
-0.018299619
-0.018004726
-0.017637497
-0.017201659
-0.016701613
-0.016142345
-0.015529318
-0.014868352
-0.014165502
-0.01342693
-0.012658773
-0.011867021
-0.011057393
-0.010235226
-0.0094053697
-0.0085720893
-0.0077389768
-0.0069088669
-0.0060837401
-0.0052646901
-0.0044515836
-0.0036440317
-0.0028365851
-0.0020390422
-0.0011913612
-0.00054497163
-0.0037611807
-0.0045237301
-0.0053129544
-0.0061380088
-0.0069628469
-0.0077729806
-0.0085699148
-0.0093539316
-0.010120846
-0.010865353
-0.011582775
-0.012268755
-0.012918787
-0.013528208
-0.014092383
-0.014606821
-0.01506724
-0.015469622
-0.015810299
-0.016086036
-0.016294102
-0.016432347
-0.016499254
-0.016493994
-0.016416454
-0.016267261
-0.01604778
-0.015760095
-0.015406978
-0.014991829
-0.014518614
-0.013991774
-0.013416127
-0.012796765
-0.012138941
-0.011447953
-0.010729024
-0.0099871899
-0.0092271866
-0.0084533392
-0.0076694574
-0.0068787343
-0.0060836331
-0.0052858338
-0.0044858949
-0.003684157
-0.0028761527
-0.0020721532
-0.0012147865
-0.00055202057
-0.0015198081
-0.0022349605
-0.0029731419
-0.0037408821
-0.0045118985
-0.0052754167
-0.006032203
-0.0067821074
-0.0075216829
-0.0082465902
-0.0089528635
-0.0096366923
-0.010294074
-0.01092081
-0.011512634
-0.012065303
-0.012574644
-0.013036609
-0.013447341
-0.013803248
-0.014101077
-0.01433798
-0.014511583
-0.014620041
-0.014662092
-0.014637095
-0.014545052
-0.01438663
-0.014163144
-0.013876546
-0.013529384
-0.013124756
-0.012666236
-0.012157796
-0.011603715
-0.011008483
-0.010376691
-0.0097129194
-0.0090216302
-0.0083070479
-0.007573046
-0.0068230334
-0.0060598282
-0.0052855878
-0.0045014708
-0.0037084873
-0.0029030872
-0.0020960766
-0.0012325379
-0.00055730286
0.000363634
-0.00030994206
-0.00100329
-0.0017205627
-0.0024435323
-0.0031645323
-0.0038837279
-0.004600603
-0.0053123228
-0.0060153682
-0.0067063998
-0.0073821074
-0.0080389702
-0.0086732506
-0.009281083
-0.0098585367
-0.010401653
-0.010906489
-0.011369168
-0.01178595
-0.012153287
-0.012467893
-0.012726805
-0.012927449
-0.013067695
-0.013145912
-0.013161011
-0.013112475
-0.013000385
-0.012825423
-0.012588869
-0.012292577
-0.011938938
-0.011530823
-0.011071521
-0.010564662
-0.010014122
-0.0094239285
-0.0087981497
-0.0081407824
-0.0074556329
-0.006746197
-0.0060155248
-0.0052661385
-0.0044996963
-0.0037177967
-0.0029177247
-0.002110803
-0.0012444313
-0.00056032237
0.0018863212
0.0012465237
0.00058999106
-8.5678991e-05
-0.00076867654
-0.0014537797
-0.0021406572
-0.0028284962
-0.003514952
-0.0041971698
-0.004872328
-0.0055375434
-0.0061897167
-0.0068255277
-0.0074414899
-0.0080339934
-0.008599332
-0.0091337359
-0.0096334151
-0.01009461
-0.010513645
-0.010886986
-0.011211304
-0.011483529
-0.01170092
-0.011861115
-0.011962193
-0.012002715
-0.011981768
-0.01189899
-0.011754591
-0.011549347
-0.011284603
-0.010962235
-0.010584614
-0.010154545
-0.0096751951
-0.0091500118
-0.0085826219
-0.0079767254
-0.0073359772
-0.0066638653
-0.0059635709
-0.0052378781
-0.0044888412
-0.0037185502
-0.0029250208
-0.0021200204
-0.0012530711
-0.00056239374
0.0030890227
0.0024770017
0.0018506021
0.0012090479
0.00055912446
-9.5904567e-05
-0.00075532307
-0.0014180675
-0.0020821641
-0.002745276
-0.0034049919
-0.0040587723
-0.0047038639
-0.0053372961
-0.0059559111
-0.0065563898
-0.0071352716
-0.0076889793
-0.0082138526
-0.0087061878
-0.0091622837
-0.009578491
-0.0099512668
-0.010277233
-0.010553234