/*--------------------------------*- C++ -*----------------------------------*\
  =========                 |
  \\      /  F ield         | OpenFOAM: The Open Source CFD Toolbox
   \\    /   O peration     | Website:  https://openfoam.org
    \\  /    A nd           | Version:  6
     \\/     M anipulation  |
\*---------------------------------------------------------------------------*/
FoamFile
{
    version     2.0;
    format      ascii;
    class       surfaceScalarField;
    location    "131";
    object      phi;
}
// * * * * * * * * * * * * * * * * * * * * * * * * * * * * * * * * * * * * * //

dimensions      [0 3 -1 0 0 0 0];

internalField   nonuniform List<scalar> 
18180
(
0.00031873246
-0.00016316647
-0.00015556599
0.0013092238
-0.0013669423
0.00037645092
0.0030329168
-0.0033336734
0.0016099805
0.0055498263
-0.0059760467
0.0034591372
0.0089182807
-0.0092392079
0.0058707534
0.013192935
-0.013079705
0.0088050508
0.01842211
-0.017460069
0.012230894
0.024644826
-0.022346087
0.016123371
0.031887651
-0.027703667
0.020460842
0.040161627
-0.033496226
0.02522225
0.049459582
-0.039682928
0.030384973
0.059754207
-0.046217771
0.035923147
0.070997286
-0.053049484
0.041806404
0.083120556
-0.06012229
0.04799902
0.096038788
-0.067377612
0.05445938
0.10965562
-0.074756837
0.061140002
0.12387159
-0.082204987
0.06798902
0.13859934
-0.089675024
0.074947278
0.15383743
-0.097149815
0.08191172
-0.10462699
0.088679937
0.16978448
0.00039750071
-0.00056066719
0.0016096091
-0.0025790507
0.0036893504
-0.0054134148
0.0066875015
-0.0089741977
0.010650743
-0.013202449
0.015618
-0.018046962
0.021616436
-0.023458505
0.028657487
-0.029387138
0.036733231
-0.035779411
0.04581349
-0.042576484
0.055844092
-0.049713531
0.066746664
-0.057120342
0.078420171
-0.06472299
0.090744327
-0.072446447
0.10358464
-0.080217926
0.1167985
-0.087970697
0.13024137
-0.095647853
0.14377355
-0.1032072
0.15725911
-0.11063537
-0.11786286
0.17049498
0.00048062749
-0.0010412947
0.001918714
-0.0040171372
0.0043525139
-0.0078472147
0.0078166252
-0.012438309
0.01233776
-0.017723584
0.017929343
-0.023638545
0.024586429
-0.030115592
0.032281439
-0.037082147
0.040961119
-0.044459091
0.050545248
-0.052160613
0.060927439
-0.060095722
0.071978214
-0.068171117
0.083550233
-0.076295009
0.09548526
-0.084381474
0.10762214
-0.092354802
0.11980469
-0.10015325
0.1318884
-0.10773157
0.14374383
-0.11506263
0.15524899
-0.12214053
-0.12891518
0.16630131
0.00056617411
-0.0016074688
0.0022279593
-0.0056789224
0.0050006482
-0.010619904
0.0088940748
-0.016331736
0.013905355
-0.022734865
0.020012017
-0.029745207
0.027166665
-0.037270239
0.035293636
-0.045209118
0.044288116
-0.053453572
0.054018071
-0.061890568
0.064329041
-0.070406692
0.07505147
-0.078893545
0.086009868
-0.087253407
0.097032832
-0.095404438
0.10796277
-0.10328474
0.11866423
-0.11085471
0.12902987
-0.11809721
0.13898312
-0.12501589
0.14847499
-0.1316324
-0.137946
0.15750582
0.00065089097
-0.0022583598
0.0025243593
-0.0075523908
0.0056036725
-0.013699217
0.0098645297
-0.020592593
0.015264708
-0.028135043
0.021736541
-0.03621704
0.029182648
-0.044716346
0.037475094
-0.053501564
0.04645823
-0.062436708
0.055955086
-0.071387424
0.06577669
-0.080228297
0.075733269
-0.088850124
0.085645958
-0.097166097
0.095357607
-0.10511609
0.10474138
-0.11266852
0.11370631
-0.11981963
0.12219942
-0.12659032
0.13020454
-0.13302101
0.1377379
-0.13916576
-0.1450683
0.1448602
0.00073064072
-0.0029890005
0.0027921042
-0.0096138542
0.0061266121
-0.017033725
0.010666775
-0.025132756
0.016322742
-0.033791009
0.022975364
-0.042869663
0.030474577
-0.052215559
0.038642569
-0.061669556
0.047281374
-0.071075513
0.056183924
-0.080289974
0.065147071
-0.089191443
0.073984765
-0.097687818
0.082539618
-0.10572095
0.090691392
-0.11326786
0.098361493
-0.12033862
0.10551328
-0.12697142
0.1121487
-0.13322574
0.11830224
-0.13917455
0.12403339
-0.14489691
-0.15046394
0.12942904
0.0008007361
-0.0037897366
0.0030139336
-0.011827052
0.0065329304
-0.020552722
0.01124011
-0.029839936
0.01699278
-0.039543678
0.02361865
-0.049495533
0.030918339
-0.059515248
0.038673453
-0.06942467
0.04665891
-0.07906097
0.054657527
-0.088288591
0.062474569
-0.097008485
0.069950035
-0.10516328
0.076967002
-0.11273792
0.083455089
-0.11975595
0.089389043
-0.12627257
0.094783186
-0.13236556
0.099683112
-0.13812567
0.10415624
-0.14364768
0.10828278
-0.14902345
-0.15433415
0.11215298
0.00085606347
-0.0046458001
0.0031720771
-0.014143065
0.0067872588
-0.024167903
0.011529854
-0.034582531
0.017203504
-0.045217328
0.023586634
-0.055878663
0.03043997
-0.066368584
0.037519425
-0.076504125
0.044591887
-0.086133432
0.051451073
-0.095147777
0.057930672
-0.10348808
0.063912778
-0.11114539
0.069330599
-0.11815574
0.074165596
-0.12459095
0.078440102
-0.13054708
0.082207125
-0.13613259
0.085539231
-0.14145777
0.088518231
-0.14662668
0.09122697
-0.15173219
-0.15685257
0.093745396
0.00089026678
-0.0055360668
0.0032482981
-0.016501097
0.0068576508
-0.027777256
0.011492507
-0.039217388
0.016906865
-0.050631686
0.022838959
-0.061810757
0.029023734
-0.072553359
0.035209307
-0.082689698
0.041173967
-0.092098092
0.046740408
-0.10071422
0.051784632
-0.10853231
0.056238341
-0.1155991
0.060085025
-0.12200242
0.063351082
-0.127857
0.066093996
-0.13328999
0.068389784
-0.13842837
0.070321598
-0.14338959
0.071970859
-0.14827594
0.073411496
-0.15317283
-0.15814817
0.074707096
0.00089982215
-0.006435889
0.0032333932
-0.018834668
0.0067291875
-0.03127305
0.01111121
-0.04359941
0.016092525
-0.055613001
0.021384663
-0.067102895
0.026713918
-0.077882614
0.031839134
-0.087814914
0.036567079
-0.096826038
0.040762233
-0.10490937
0.044349396
-0.11211947
0.047309227
-0.11855893
0.049668237
-0.12436143
0.051485597
-0.12967436
0.052839259
-0.13464365
0.053813505
-0.13940262
0.054489348
-0.14406543
0.05493841
-0.148725
0.05522009
-0.15345451
0.055380478
-0.15830856
-0.00020238019
0.00020238017
1.6726669e-11
-0.00067775261
0.00047537239
2.4043411e-11
-0.0013424375
0.00066468484
2.5040705e-11
-0.0021323121
0.00078987455
2.6079906e-11
-0.0029957973
0.00086348523
2.5313088e-11
-0.0038907705
0.00089497313
2.2464512e-11
-0.0047823312
0.00089156066
1.7938157e-11
-0.0056409324
0.0008586012
1.2559793e-11
-0.00644091
0.00079997757
7.2564889e-12
-0.0071593317
0.00071842164
2.1016571e-12
-0.0077750786
0.0006157469
-2.3223443e-12
-0.0082681101
0.00049303152
-6.4946799e-12
-0.0086188841
0.00035077401
-1.0222204e-11
-0.0088079236
0.00018903952
-1.3994173e-11
-0.0088155616
7.6379539e-06
-1.78264e-11
-0.0086219646
-0.00019359695
-2.1980606e-11
-0.0082073969
-0.00041456772
-2.6595885e-11
-0.0075518147
-0.00065558215
-3.1793836e-11
-0.0066344609
-0.00091735373
-3.7815934e-11
-0.0011862787
-0.0054481821
-4.4776059e-11
-0.00018797618
0.00039035634
-0.00062501243
0.00091240865
-0.0012287634
0.0012684358
-0.0019352098
0.001496321
-0.0026921595
0.0016204349
-0.0034563086
0.0016591222
-0.0041910947
0.0016263468
-0.0048648878
0.0015323943
-0.0054495523
0.0013846421
-0.005919312
0.0011881813
-0.0062498346
0.00094626946
-0.0064174898
0.0006606867
-0.0063987446
0.00033202886
-0.0061696844
-4.002073e-05
-0.0057056874
-0.00045635905
-0.0049813448
-0.0009179395
-0.0039706767
-0.0014252358
-0.0026470525
-0.0019792064
-0.0009830413
-0.0025813649
-0.0032018955
0.0010325755
-0.00015892912
0.00054928547
-0.0005188953
0.0012723748
-0.0010007769
0.0017503174
-0.0015412691
0.0020368132
-0.0020873616
0.0021665274
-0.0025937475
0.0021655081
-0.0030208793
0.0020534785
-0.0033333008
0.0018448159
-0.0034983025
0.0015496438
-0.0034848446
0.0011747235
-0.0032626738
0.00072409864
-0.002801603
0.00019961588
-0.0020708778
-0.00039869631
-0.0010386627
-0.0010722359
0.00032838866
-0.0018234104
0.0020654096
-0.0026549604
0.0042092803
-0.0035691066
0.0067983218
-0.0045682479
0.009872227
-0.0056552701
-0.006779946
0.013450277
-0.00011756763
0.00066685309
-0.00036700028
0.0015218075
-0.00067351608
0.0020568333
-0.00097482774
0.0023381248
-0.0012168541
0.0024085537
-0.0013515899
0.0023002439
-0.0013354484
0.002037337
-0.0011278064
0.0016371739
-0.00068980798
0.0011116454
1.6587703e-05
0.00046832779
0.0010293907
-0.0002887044
0.0023872273
-0.0011582207
0.0041298848
-0.0021413538
0.0062987935
-0.0032411446
0.0089375327
-0.0044621496
0.012092387
-0.005809815
0.015812722
-0.0072894417
0.020150683
-0.0089062083
0.025160981
-0.010665568
-0.012492952
0.030873987
-6.6907648e-05
0.00073376074
-0.00017916587
0.0016340657
-0.00026653121
0.0021441986
-0.00026768491
0.0023392785
-0.0001271811
0.0022680499
0.00020619001
0.0019668728
0.00078073068
0.0014627963
0.0016430051
0.00077489947
0.002838809
-8.4158583e-05
0.0044139558
-0.0011068189
0.0064148396
-0.0022895882
0.0088888522
-0.0036322332
0.011884708
-0.0051372096
0.015452774
-0.0068092106
0.019645444
-0.0086548195
0.024517758
-0.010682129
0.03012828
-0.012899964
0.03653961
-0.015317538
0.043819147
-0.017945104
-0.020683025
0.05200922
-9.9839744e-06
0.00074374472
3.4538037e-05
0.0015895437
0.00019989799
0.0019788386
0.00054678131
0.0019923952
0.0011322741
0.0016825571
0.002011024
0.001088123
0.0032362038
0.00023761648
0.004860395
-0.00084929175
0.0069362451
-0.0021600086
0.0095168417
-0.0036874156
0.012655921
-0.005428668
0.016407974
-0.0073842858
0.020828169
-0.0095574049
0.025972196
-0.011953237
0.031896162
-0.014578786
0.038656897
-0.017442864
0.046313134
-0.020556201
0.054927572
-0.023931977
0.064570707
-0.027588239
-0.031406244
0.075293926
5.0752565e-05
0.00069299215
0.00026566308
0.0013746332
0.0007082671
0.0015362346
0.0014390544
0.0012616079
0.0025168604
0.00060475108
0.0039996279
-0.00039464446
0.0059450034
-0.0017077591
0.0084107265
-0.0033150148
0.01145476
-0.0052040418
0.015135257
-0.0073679134
0.019510298
-0.0098037089
0.024637357
-0.012511345
0.03057257
-0.015492618
0.037369836
-0.018750503
0.045079883
-0.022288832
0.053749722
-0.026112703
0.063423463
-0.030229943
0.074145705
-0.034654219
0.08597048
-0.039413014
-0.044389306
0.098953542
0.0001137981
0.00057919405
0.00050851079
0.00097992048
0.0012459996
0.00079874582
0.0023868096
0.00012079789
0.0039912931
-0.00099973244
0.0061199547
-0.0025233061
0.0088334319
-0.0044212363
0.012192319
-0.0066739015
0.01625676
-0.0092684829
0.021085706
-0.01219686
0.026735875
-0.015453879
0.033260428
-0.019035898
0.040707377
-0.022939566
0.04911778
-0.027160906
0.058523848
-0.0316949
0.068947312
-0.036536168
0.080399251
-0.041681881
0.092883202
-0.047138169
0.10640666
-0.052936476
-0.058996596
0.12101395
0.00017849809
0.00040069596
0.00076003913
0.00039837944
0.0018053603
-0.00024657532
0.0033747529
-0.0014485947
0.0055290587
-0.0031540383
0.0083294136
-0.005323661
0.011836623
-0.0079284454
0.016110238
-0.010947517
0.021207277
-0.014365522
0.027180601
-0.018170184
0.034076987
-0.022350265
0.041934927
-0.026893837
0.050782197
-0.031786837
0.060633223
-0.037011932
0.071486226
-0.042547903
0.083320217
-0.048370159
0.096092787
-0.054454452
0.10974145
-0.06078683
0.12419711
-0.067392141
-0.074275623
0.13947614
0.00024512997
0.0010199603
0.0023833655
0.0043939079
0.007110623
0.010592013
0.014894461
0.020070316
0.026165636
0.033217702
0.04125241
0.050281719
0.060301287
0.071288374
0.083199851
0.095969694
0.10950426
0.12366471
0.13818429
0.1525886
-0.0035074987
-0.0019406834
-7.2723727e-11
-0.0012856474
-0.0022218512
-8.7470294e-11
0.001195037
-0.0024806844
-1.0262933e-10
0.0038776551
-0.002682618
-1.1802463e-10
0.0067354032
-0.002857748
-1.3266144e-10
0.0097509759
-0.0030155725
-1.4646159e-10
0.012905439
-0.0031544628
-1.5776819e-10
0.01618077
-0.0032753306
-1.6548165e-10
0.019561267
-0.0033804973
-1.6797428e-10
0.023032713
-0.0034714456
-1.6383389e-10
0.026581821
-0.0035491076
-1.5187409e-10
0.030196166
-0.0036143452
-1.3056673e-10
0.033864106
-0.0036679401
-9.8727248e-11
0.037574645
-0.0037105391
-5.4961334e-11
0.041317332
-0.0037426871
1.3671646e-12
0.045082196
-0.0037648637
7.0769531e-11
0.048859696
-0.0037775001
1.5247057e-10
0.052640689
-0.0037809933
2.4521484e-10
0.056416408
-0.0037757196
3.4598204e-10
0.060178455
-0.003762047
4.5093851e-10
0.063918798
-0.0037403435
5.5400711e-10
0.06762978
-0.0037109834
6.4817858e-10
0.071304131
-0.0036743514
7.2404029e-10
0.074934975
-0.0036308445
7.7180553e-10
0.078515846
-0.0035808724
7.7981652e-10
0.082040702
-0.0035248561
7.3773178e-10
0.085503927
-0.0034632259
6.349271e-10
0.088900345
-0.0033964186
4.6532423e-10
0.092225219
-0.0033248736
2.2522256e-10
0.095474248
-0.0032490294
-7.9902218e-11
0.098643569
-0.0031693204
-4.3919984e-10
0.10172974
-0.0030861734
-8.2776003e-10
0.10472975
-0.0030000047
-1.2143518e-09
0.10764097
-0.002911218
-1.5515122e-09
0.11046117
-0.0028202036
-1.7906474e-09
0.11318851
-0.0027273379
-1.8714955e-09
0.1158215
-0.0026329843
-1.7487201e-09
0.118359
-0.0025374961
-1.3793528e-09
0.12080022
-0.0024412232
-7.6210143e-10
0.12314473
-0.0023445136
8.1521326e-11
0.12539249
-0.0022477545
1.0649115e-09
0.12754379
-0.002151299
2.0651286e-09
0.12959962
-0.0020558392
2.9107909e-09
0.13156098
-0.0019613649
3.4251887e-09
0.13343198
-0.0018710053
3.4393563e-09
0.13521116
-0.0017791732
2.854983e-09
0.136923
-0.0017118507
1.6788892e-09
0.13852337
-0.0016003704
1.1765112e-10
0.14021327
-0.0016898906
-1.737362e-09
-0.0013346331
-2.9339287e-09
0.0028532483
-0.0037613562
0.0049504596
-0.0043190625
0.0072933915
-0.0048236162
0.0098196014
-0.0052088279
0.012508028
-0.005546175
0.015346347
-0.0058538916
0.018317818
-0.0061259332
0.021406034
-0.0063635462
0.024596976
-0.0065714395
0.027877882
-0.0067523521
0.031236621
-0.0069078469
0.034661713
-0.0070394366
0.0381423
-0.0071485269
0.041668036
-0.0072362754
0.045229004
-0.0073036556
0.048815672
-0.0073515314
0.052418861
-0.0073806886
0.056029726
-0.0073918583
0.059639748
-0.0073857422
0.063240736
-0.0073630347
0.06682483
-0.0073244373
0.070384517
-0.0072706703
0.073912644
-0.0072024789
0.077402436
-0.0071206363
0.080847508
-0.0070259438
0.084241879
-0.0069192273
0.087579986
-0.0068013327
0.090856687
-0.0066731201
0.094067269
-0.006535456
0.097207446
-0.0063892061
0.10027335
-0.0062352288
0.10326155
-0.0060743677
0.10616899
-0.0059074464
0.10899304
-0.0057352649
0.11173143
-0.0055585961
0.11438228
-0.0053781866
0.11694405
-0.0051947582
0.11941557
-0.0050090127
0.12179599
-0.004821647
0.12408483
-0.0046333533
0.12628198
-0.0044449057
0.12838769
-0.0042570079
0.1304029
-0.0040710426
0.13232852
-0.0038869931
0.1341686
-0.0037110855
0.13592168
-0.0035322451
0.13761179
-0.0034019593
0.13919581
-0.0031844001
0.14086957
-0.003363641
-0.0026668137
0.015021675
-0.0053327536
0.016852842
-0.0061502297
0.018906453
-0.0068772272
0.021112579
-0.0074149542
0.023459587
-0.0078931825
0.025943823
-0.0083381279
0.02855267
-0.0087347804
0.031272649
-0.0090835246
0.034092658
-0.0093914488
0.037002469
-0.0096621627
0.03999196
-0.0098973386
0.043051273
-0.010098749
0.046170882
-0.010268136
0.049341533
-0.010406927
0.052554197
-0.010516319
0.055800063
-0.010597397
0.059070541
-0.010651167
0.06235727
-0.010678587
0.065652128
-0.010680601
0.068947251
-0.010658158
0.072235053
-0.010612239
0.075508245
-0.010543863
0.078759866
-0.010454099
0.081983294
-0.010344064
0.085172273
-0.010214923
0.088320927
-0.010067881
0.091423773
-0.0099041787
0.094475732
-0.0097250784
0.09747213
-0.0095318544
0.10040871
-0.0093257837
0.10328161
-0.0091081311
0.10608739
-0.0088801428
0.10882298
-0.0086430366
0.11148571
-0.0083979956
0.11407328
-0.0081461654
0.11658374
-0.0078886524
0.11901551
-0.0076265288
0.12136734
-0.0073608386
0.12363831
-0.0070926202
0.12582786
-0.0068229065
0.12793581
-0.0065528552
0.12996233
-0.0062835207
0.13190825
-0.0060169692
0.13377445
-0.0057531937
0.1355648
-0.005501434
0.13727793
-0.0052453732
0.13893692
-0.005060946
0.14050098
-0.0047484616
0.1421553
-0.0050179634
-0.0040072338
0.032057342
-0.0065161085
0.033472608
-0.0075654953
0.035078186
-0.0084828051
0.036801099
-0.009137868
0.038642035
-0.0097341182
0.04060729
-0.010303383
0.042689694
-0.010817184
0.044879723
-0.011273554
0.047169802
-0.011681528
0.049552703
-0.012045064
0.052020719
-0.012365354
0.054565894
-0.012643924
0.057180218
-0.01288246
0.059855648
-0.013082357
0.062584123
-0.013244794
0.065357599
-0.013370873
0.068168096
-0.013461664
0.071007737
-0.013518228
0.073868789
-0.013541653
0.076743703
-0.013533071
0.079625146
-0.013493681
0.082506039
-0.013424756
0.085379589
-0.01332765
0.088239316
-0.013203791
0.091079076
-0.013054683
0.093893083
-0.012881889
0.096675926
-0.012687022
0.099422577
-0.012471729
0.1021284
-0.012237678
0.10478915
-0.011986537
0.10740099
-0.011719966
0.10996044
-0.011439599
0.11246444
-0.011147035
0.11491028
-0.01084383
0.1172956
-0.01053149
0.11961842
-0.010211473
0.12187709
-0.0098851955
0.12407029
-0.0095540364
0.12619704
-0.0092193707
0.1282567
-0.0088825705
0.13024902
-0.0085451738
0.13217409
-0.008208587
0.13403267
-0.0078755513
0.13582557
-0.007546094
0.13755648
-0.0072323453
0.13922422
-0.0069131132
0.14085049
-0.0066872171
0.14239798
-0.0062959544
0.14403662
-0.0066565942
-0.005371791
0.052649577
-0.0071564654
0.05349023
-0.0084061487
0.054484415
-0.0094769904
0.055566445
-0.010219898
0.056751138
-0.010918811
0.058052787
-0.011605032
0.059469903
-0.012234301
0.060997621
-0.012801271
0.062631727
-0.013315635
0.064367627
-0.013780964
0.0661998
-0.014197527
0.068121975
-0.0145661
0.07012739
-0.014887875
0.072208943
-0.01516391
0.074359288
-0.015395139
0.076570911
-0.015582497
0.078836222
-0.015726975
0.081147628
-0.015829634
0.0834976
-0.015891625
0.085878736
-0.015914208
0.088283812
-0.015898757
0.090705826
-0.015846771
0.09313804
-0.015759864
0.095574014
-0.015639765
0.098007635
-0.015488304
0.10043314
-0.015307391
0.10284512
-0.015099007
0.10523857
-0.014865177
0.10760885
-0.014607953
0.1099517
-0.014329394
0.11226328
-0.014031546
0.11454011
-0.013716426
0.11677908
-0.01338601
0.11897747
-0.01304222
0.12113291
-0.012686921
0.12324335
-0.012321919
0.12530712
-0.011948968
0.12732287
-0.011569783
0.12928958
-0.011186076
0.13120656
-0.010799555
0.13307353
-0.010412143
0.13489054
-0.010025599
0.13665832
-0.0096433324
0.13837766
-0.0092654357
0.14005209
-0.008906775
0.14168073
-0.0085417469
0.14328359
-0.0082900824
0.14482781
-0.0078401693
0.14646438
-0.0082931702
-0.0067837283
0.075222969
-0.0070855082
0.07532799
-0.0085111704
0.075552422
-0.009701422
0.07585278
-0.010520256
0.076257101
-0.011323132
0.076782237
-0.012130168
0.077431225
-0.012883288
0.078203994
-0.01357404
0.079098855
-0.014210495
0.080112657
-0.014794766
0.08124116
-0.015326029
0.082479066
-0.015804006
0.083820193
-0.016229002
0.085257762
-0.016601478
0.086784595
-0.016921972
0.088393241
-0.017191143
0.090076082
-0.017409816
0.091825441
-0.017578992
0.093633674
-0.017699859
0.095493245
-0.017773779
0.097396789
-0.017802301
0.099337164
-0.017787145
0.1013075
-0.017730203
0.10330124
-0.017633507
0.10531217
-0.017499228
0.10733441
-0.017329638
0.10936251
-0.017127099
0.11139135
-0.016894025
0.11341627
-0.01663287
0.11543297
-0.016346089
0.11743755
-0.016036126
0.11942651
-0.015705392
0.12139675
-0.015356245
0.12334551
-0.014990981
0.12527042
-0.014611829
0.12716945
-0.01422095
0.12904092
-0.013820443
0.1308835
-0.013412362
0.13269619
-0.012998761
0.13447833
-0.012581695
0.13622966
-0.012163471
0.13795027
-0.011746215
0.13964093
-0.011333992
0.1413025
-0.010927003
0.14293839
-0.01054267
0.14454815
-0.010151507
0.14614996
-0.0098918896
0.14771609
-0.0094062981
0.1493762
-0.0099532799
-0.0082751618
0.0980266
-0.0061585659
0.097259382
-0.0077439527
0.09658315
-0.0090251896
0.095998775
-0.009935882
0.095542388
-0.010866744
0.09522522
-0.011813
0.095052639
-0.012710708
0.095028648
-0.01355005
0.095152781
-0.014334628
0.095421773
-0.015063758
0.095831264
-0.01573552
0.096375844
-0.016348587
0.09704903
-0.016902187
0.097843588
-0.017396037
0.098751837
-0.017830221
0.099765805
-0.018205111
0.10087736
-0.018521367
0.10207831
-0.018779944
0.10336053
-0.018982084
0.10471604
-0.019129288
0.10613705
-0.019223311
0.10761605
-0.019266138
0.10914581
-0.01925997
0.11071949
-0.019207189
0.11233061
-0.019110343
0.11397308
-0.01897211
0.11564125
-0.018795263
0.11732987
-0.018582646
0.11903414
-0.018337141
0.12074968
-0.018061633
0.12247255
-0.017758995
0.12419921
-0.017432052
0.12592654
-0.017083569
0.1276518
-0.01671624
0.12937264
-0.016332677
0.1310871
-0.015935411
0.13279356
-0.015526903
0.13449077
-0.015109564
0.13617781
-0.014685804
0.13785415
-0.014258035
0.13951964
-0.013828966
0.14117453
-0.013401098
0.14281969
-0.012979153
0.14445616
-0.012563478
0.14608736
-0.012173873
0.14771338
-0.011777522
0.14935049
-0.011529005
0.15097662
-0.011032419
0.15269885
-0.011675516
-0.0098878528
0.11919036
-0.004334967
0.1174978
-0.0060513982
0.11585834
-0.0073857248
0.11435586
-0.0084334108
0.11302663
-0.0095375052
0.11186813
-0.010654504
0.11088584
-0.011728421
0.11008605
-0.012750254
0.10946815
-0.013716735
0.10902757
-0.014623173
0.10875848
-0.015466433
0.10865423
-0.016244335
0.10870722
-0.016955177
0.10890914
-0.017597958
0.10925127
-0.018172348
0.10972466
-0.018678504
0.11032029
-0.019116999
0.11102916
-0.01948881
0.11184237
-0.019795299
0.11275126
-0.020038175
0.11374741
-0.020219463
0.11482275
-0.020341476
0.11596957
-0.020406788
0.11718057
-0.020418192
0.1184489
-0.020378673
0.11976816
-0.020291365
0.12113241
-0.020159516
0.12253621
-0.019986447
0.12397459
-0.019775519
0.12544305
-0.019530099
0.12693758
-0.019253522
0.1284546
-0.018949076
0.12999101
-0.018619973
0.1315441
-0.018269334
0.13311162
-0.01790019
0.13469168
-0.017515472
0.13628281
-0.017118032
0.1378839
-0.016710661
0.13949425
-0.016296149
0.1411135
-0.015877292
0.14274175
-0.015457213
0.14437947
-0.015038814
0.14602779
-0.014627475
0.14768804
-0.014223731
0.14936375
-0.013849583
0.15105567
-0.013469438
0.15277824
-0.013251578
0.15451526
-0.012769434
0.15635115
-0.013511404
-0.011673147
0.13689721
-0.0017560321
0.13437928
-0.0035334775
0.13182076
-0.0048272022
0.12946375
-0.0060763956
0.12733545
-0.0074092044
0.12541723
-0.008736292
0.12371194
-0.010023129
0.12222466
-0.011262971
0.12095383
-0.01244591
0.1198937
-0.013563035
0.11903674
-0.014609476
0.11837462
-0.015582214
0.11789834
-0.016478896
0.11759837
-0.01729799
0.11746485
-0.018038828
0.11748777
-0.018701419
0.1176571
-0.019286333
0.11796293
-0.019794644
0.11839554
-0.020227903
0.11894546
-0.020588093
0.11960357
-0.020877576
0.12036116
-0.021099062
0.12120993
-0.021255563
0.12214209
-0.02135035
0.12315033
-0.021386911
0.12422787
-0.021368908
0.12536847
-0.02130012
0.12656644
-0.021184414
0.12781661
-0.021025691
0.12911437
-0.020827853
0.13045561
-0.020594763
0.13183675
-0.020330219
0.13325471
-0.02003793
0.13470687
-0.019721496
0.13619108
-0.019384405
0.13770564
-0.019030032
0.13924927
-0.01866166
0.1408211
-0.018282493
0.14242069
-0.017895734
0.14404799
-0.017504592
0.14570341
-0.017112634
0.14738778
-0.016723186
0.1491026
-0.016342297
0.15084961
-0.015970734
0.15263255
-0.015632529
0.15445296
-0.015289849
0.15632356
-0.015122176
0.15823413
-0.014680009
0.16024686
-0.015524133
-0.01369108
0.15005313
0.00077944632
0.14676421
-0.00024456597
0.14346692
-0.0015299041
0.14041918
-0.0030286614
0.13762434
-0.0046143597
0.13507613
-0.0061880812
0.13277639
-0.0077233885
0.1307252
-0.0092117845
0.12892013
-0.01064084
0.12735598
-0.011998881
0.12602491
-0.013278413
0.12491753
-0.014474835
0.12402366
-0.015585026
0.12333264
-0.016606969
0.12283349
-0.017539674
0.12251509
-0.018383023
0.12236638
-0.019137621
0.12237644
-0.019804704
0.12253461
-0.020386078
0.12283058
-0.020884062
0.12325444
-0.021301429
0.12379673
-0.021641356
0.12444854
-0.02190737
0.12520148
-0.022103295
0.12604777
-0.022233202
0.12698021
-0.022301349
0.12799223
-0.022312132
0.12907784
-0.022270031
0.13023172
-0.022179563
0.1314491
-0.022045236
0.13272584
-0.021871506
0.13405837
-0.021662746
0.13544366
-0.021423222
0.13687923
-0.021157069
0.13836312
-0.020868289
0.13989384
-0.020560748
0.14147038
-0.0202382
0.14309219
-0.019904311
0.14475919
-0.019562733
0.14647172
-0.01921712
0.1482306
-0.018871519
0.15003712
-0.018529699
0.15189323
-0.018198409
0.15380115
-0.017878654
0.15576504
-0.017596415
0.1577871
-0.017311913
0.15987895
-0.017214022
0.1620348
-0.016835859
0.16429963
-0.017788967
-0.016006601
0.18891033
0.0053814826
-0.19351237
0.18510036
0.0035654084
0.18170839
0.0018620654
0.17856333
0.00011639606
0.17562784
-0.0016788717
0.17287689
-0.0034371304
0.17029225
-0.0051387508
0.16786494
-0.0067844671
0.16559106
-0.0083669625
0.16346847
-0.0098762877
0.1614953
-0.011305244
0.15966944
-0.012648982
0.15798826
-0.013903845
0.15644846
-0.01506717
0.15504613
-0.016137337
0.15377678
-0.01711368
0.15263551
-0.017996345
0.15161701
-0.018786202
0.1507157
-0.019484773
0.14992582
-0.020094179
0.14924146
-0.02061707
0.14865667
-0.021056571
0.14816552
-0.021416216
0.14776212
-0.021699895
0.1474407
-0.021911787
0.14719566
-0.022056302
0.14702155
-0.022138024
0.14691316
-0.022161646
0.14686552
-0.022131924
0.14687391
-0.02205362
0.14693386
-0.021931458
0.1470412
-0.021770089
0.14719204
-0.02157406
0.14738277
-0.021347794
0.14761005
-0.021095575
0.14787086
-0.020821559
0.14816245
-0.020529785
0.14848234
-0.020224205
0.14882838
-0.019908766
0.14919867
-0.019587416
0.14959169
-0.019264535
0.1500062
-0.018944207
0.15044144
-0.018633658
0.15089693
-0.018334135
0.15137328
-0.01807277
0.15187037
-0.017809002
0.15239274
-0.017736388
0.15293601
-0.017379136
0.15352346
-0.01837641
-0.016601969
0.21685917
0.0087797493
-0.22025744
0.21338535
0.0070392284
0.21017261
0.0050748095
0.20706736
0.0032216383
0.20402084
0.0013676504
0.201064
-0.00048028665
0.19821372
-0.0022884689
0.19547451
-0.0040452601
0.19285228
-0.0057447313
0.19035385
-0.0073778645
0.18798444
-0.008935829
0.18574743
-0.010411972
0.18364482
-0.011801237
0.18167731
-0.013099663
0.17984437
-0.014304396
0.17814437
-0.01541368
0.17657477
-0.016426742
0.17513225
-0.017343679
0.17381286
-0.018165382
0.17261214
-0.018893464
0.17152526
-0.019530187
0.17054708
-0.02007839
0.16967228
-0.020541415
0.16889542
-0.020923043
0.16821105
-0.021227417
0.16761373
-0.021458974
0.16709808
-0.021622382
0.1666589
-0.021722464
0.16629112
-0.021764144
0.16598989
-0.021752385
0.16575057
-0.02169214
0.16556879
-0.021588308
0.16544042
-0.021445696
0.16536163
-0.021269002
0.16532885
-0.021062791
0.16533879
-0.020831505
0.16538848
-0.020579474
0.16547522
-0.020310945
0.16559663
-0.020030169
0.16575062
-0.019741406
0.16593545
-0.019449368
0.16614974
-0.0191585
0.1663925
-0.018876419
0.16666325
-0.018604886
0.16696186
-0.018371381
0.16728958
-0.018136722
0.16764568
-0.018092488
0.16803843
-0.017771886
0.16845001
-0.018787989
-0.01707862
0.24376799
0.011503642
-0.24649188
0.24091762
0.0098896018
0.23806447
0.0079279542
0.23521758
0.0060685316
0.23233985
0.0042453807
0.2294521
0.0024074575
0.22658557
0.00057806893
0.22375953
-0.0012192257
0.22098992
-0.0029751183
0.21829266
-0.0046806092
0.21568162
-0.0063247902
0.2131678
-0.0078981494
0.21075981
-0.0093932421
0.2084642
-0.010804055
0.20628561
-0.012125808
0.20422693
-0.013354994
0.2022895
-0.014489314
0.20047337
-0.01552755
0.19877746
-0.016469468
0.19719973
-0.017315736
0.19573737
-0.01806783
0.19438694
-0.018727957
0.19314448
-0.019298959
0.19200567
-0.019784236
0.19096592
-0.020187664
0.19002045
-0.020513504
0.1891644
-0.020766332
0.1883929
-0.020950958
0.1877011
-0.021072352
0.1870843
-0.02113558
0.1865379
-0.02114574
0.18605751
-0.021107917
0.18563895
-0.021027133
0.18527827
-0.020908322
0.18497178
-0.02075631
0.18471609
-0.020575808
0.18450804
-0.020371431
0.18434482
-0.020147722
0.18422389
-0.019909236
0.18414304
-0.019660559
0.1841004
-0.01940673
0.1840945
-0.019152596
0.18412416
-0.018906079
0.18418899
-0.018669714
0.1842881
-0.018470496
0.18442424
-0.018272861
0.18459104
-0.018259289
0.1848104
-0.017991244
0.18501854
-0.018996129
-0.017414084
0.26927562
0.013536542
-0.27130852
0.26710763
0.01205759
0.26476593
0.010269657
0.26232677
0.0085076957
0.25979808
0.0067740653
0.25719006
0.0050154828
0.25452881
0.0032393127
0.25183852
0.0014710639
0.24913919
-0.00027578093
0.24645061
-0.0019920295
0.24379207
-0.0036662586
0.24118073
-0.0052868017
0.23863129
-0.0068438055
0.23615625
-0.0083290198
0.23376592
-0.0097354694
0.23146843
-0.011057514
0.22927
-0.012290875
0.227175
-0.01343255
0.22518624
-0.014480709
0.22330511
-0.015434612
0.2215318
-0.016294518
0.21986543
-0.017061589
0.21830427
-0.017737795
0.21684585
-0.018325815
0.21548713
-0.018828944
0.21422462
-0.019250998
0.21305451
-0.019596222
0.21197275
-0.019869196
0.21097516
-0.02007476
0.2100575
-0.020217926
0.20921558
-0.020303812
0.20844524
-0.02033758
0.20774249
-0.020324383
0.20710349
-0.020269327
0.20652463
-0.020177443
0.2060025
-0.020053679
0.20553397
-0.019902907
0.2051162
-0.019729951
0.20474663
-0.019539663
0.20442302
-0.01933695
0.20414347
-0.019127178
0.20390649
-0.018915617
0.20371083
-0.018710418
0.2035562
-0.018515091
0.20344116
-0.018355454
0.20336964
-0.01820134
0.20333048
-0.018220127
0.20335694
-0.018017701
0.20334385
-0.018983039
-0.017586149
0.29298625
0.014867642
-0.29431735
0.29150705
0.013536789
0.2897846
0.011992103
0.28788602
0.01040628
0.28584616
0.0088139221
0.28367585
0.0071857967
0.28139349
0.0055216721
0.27902233
0.0038422254
0.27658366
0.00216288
0.27409767
0.00049396878
0.27158453
-0.0011531241
0.26906399
-0.002766256
0.26655435
-0.0043341727
0.26407223
-0.0058468921
0.26163234
-0.0072955866
0.25924747
-0.0086726411
0.25692837
-0.0099717742
0.25468386
-0.01118804
0.25252092
-0.012317771
0.25044483
-0.013358523
0.24845931
-0.014309
0.2465667
-0.015168972
0.24476808
-0.015939182
0.24306352
-0.016621248
0.24145213
-0.017217559
0.23993231
-0.017731179
0.23850183
-0.018165738
0.23715797
-0.018525338
0.23589767
-0.018814457
0.2347176
-0.019037856
0.23361428
-0.019200498
0.23258418
-0.019307474
0.23162374
-0.019363946
0.2307295
-0.019375087
0.22989811
-0.019346054
0.2291264
-0.019281966
0.2284114
-0.019187907
0.22775039
-0.019068943
0.22714093
-0.0189302
0.22658087
-0.018776896
0.2260684
-0.018614704
0.22560211
-0.018449325
0.22518077
-0.018289085
0.22480426
-0.018138578
0.22447075
-0.018021947
0.22418503
-0.017915621
0.22393228
-0.017967369
0.22375409
-0.01783952
0.2235116
-0.018740549