/*--------------------------------*- C++ -*----------------------------------*\
  =========                 |
  \\      /  F ield         | OpenFOAM: The Open Source CFD Toolbox
   \\    /   O peration     | Website:  https://openfoam.org
    \\  /    A nd           | Version:  6
     \\/     M anipulation  |
\*---------------------------------------------------------------------------*/
FoamFile
{
    version     2.0;
    format      ascii;
    class       volScalarField;
    location    "131";
    object      pMean;
}
// * * * * * * * * * * * * * * * * * * * * * * * * * * * * * * * * * * * * * //

dimensions      [0 2 -2 0 0 0 0];

internalField   nonuniform List<scalar> 
9200
(
-0.40235823
-0.39009367
-0.37912717
-0.36944677
-0.35996972
-0.35069465
-0.34170677
-0.3329695
-0.32441003
-0.31595349
-0.30752613
-0.29906023
-0.29050119
-0.28181455
-0.27299596
-0.26408799
-0.25517432
-0.24634838
-0.23860817
-0.23612811
-0.42097881
-0.40626588
-0.39336527
-0.38215336
-0.37127723
-0.36070555
-0.35051388
-0.34063587
-0.33096873
-0.32141407
-0.31188152
-0.30229428
-0.29259653
-0.28275882
-0.2727828
-0.26270428
-0.25256404
-0.24237152
-0.23279741
-0.22596993
-0.43990136
-0.42273556
-0.40795863
-0.39528992
-0.38306824
-0.37121458
-0.35978427
-0.3486754
-0.33775535
-0.32690839
-0.31603863
-0.30507505
-0.29397756
-0.28273913
-0.27138449
-0.2599648
-0.24852981
-0.23709684
-0.22606346
-0.21654253
-0.45866086
-0.43907694
-0.42249661
-0.40843266
-0.39487997
-0.38169672
-0.36891218
-0.35639098
-0.34398121
-0.33156738
-0.31907039
-0.30644926
-0.29370295
-0.28086676
-0.26800445
-0.25519731
-0.24252007
-0.23001593
-0.21795372
-0.2070823
-0.47659529
-0.45471142
-0.4364501
-0.42106612
-0.40618551
-0.39159482
-0.37729991
-0.36314549
-0.34898335
-0.33472682
-0.32034366
-0.30585026
-0.29130581
-0.27680104
-0.26244393
-0.24834538
-0.2345991
-0.22126301
-0.20852632
-0.19690659
-0.49285001
-0.46888924
-0.4491265
-0.43250897
-0.41628758
-0.40018022
-0.38418493
-0.36815491
-0.3519814
-0.33564323
-0.31918669
-0.30270806
-0.28633765
-0.27022095
-0.2545004
-0.23930102
-0.22471603
-0.21079632
-0.19766701
-0.18567334
-0.50639376
-0.48069665
-0.45967239
-0.44191852
-0.42433199
-0.40658109
-0.38868691
-0.3705539
-0.35215768
-0.33358072
-0.31497368
-0.29652353
-0.27842797
-0.26087225
-0.24401162
-0.22796175
-0.21279247
-0.19852676
-0.18522857
-0.17310385
-0.5160424
-0.48908153
-0.46710841
-0.44834045
-0.42937469
-0.4098669
-0.38990638
-0.36950191
-0.34876096
-0.3279022
-0.30719484
-0.28691316
-0.26730535
-0.24857185
-0.23085464
-0.21423674
-0.19874622
-0.18436511
-0.17109757
-0.15903138
-0.52043888
-0.49274919
-0.47012662
-0.45041835
-0.43002441
-0.40865287
-0.38652212
-0.3638013
-0.34076632
-0.31778388
-0.29523174
-0.27344638
-0.25269454
-0.23316065
-0.214948
-0.19808964
-0.18256257
-0.16830483
-0.15526515
-0.14342957
-0.51822828
-0.49027081
-0.46716464
-0.44647484
-0.42455516
-0.40125052
-0.37697218
-0.35209158
-0.32706202
-0.30237697
-0.2784825
-0.25573063
-0.23436419
-0.21451996
-0.19624389
-0.17951218
-0.16425253
-0.15036557
-0.13775198
-0.12630876
-0.281585
-0.2858527
-0.28772767
-0.28791896
-0.28711178
-0.28546948
-0.28309144
-0.2800752
-0.27649681
-0.27241478
-0.26787729
-0.26292581
-0.25759722
-0.25192535
-0.24594221
-0.23968052
-0.2331752
-0.22645069
-0.21950926
-0.21244372
-0.28457788
-0.28839954
-0.28995224
-0.28991881
-0.28892599
-0.28712848
-0.28462347
-0.28150398
-0.27784193
-0.27369263
-0.26910152
-0.2641077
-0.25874593
-0.25304779
-0.24704246
-0.24076139
-0.23424684
-0.22752159
-0.22047778
-0.21308841
-0.29040375
-0.29335775
-0.29428496
-0.29381229
-0.29245598
-0.290355
-0.28760219
-0.28428183
-0.28045788
-0.27617928
-0.271486
-0.26641235
-0.26098882
-0.25524272
-0.24919801
-0.24288276
-0.23635024
-0.22962238
-0.22239597
-0.2143984
-0.29878139
-0.30050018
-0.30052573
-0.29940762
-0.29751067
-0.29495388
-0.29182481
-0.28819599
-0.28412035
-0.27963792
-0.27478088
-0.26957663
-0.26404944
-0.25822039
-0.25210615
-0.245729
-0.23915323
-0.23240602
-0.22493915
-0.21609677
-0.30935714
-0.30954198
-0.30842559
-0.30646911
-0.3038585
-0.30069181
-0.29705187
-0.29299785
-0.28856977
-0.2837971
-0.27870262
-0.27330445
-0.26761855
-0.26165843
-0.25543222
-0.24895337
-0.24229296
-0.23549195
-0.22775117
-0.21789433
-0.32176497
-0.32018794
-0.31772877
-0.31475896
-0.31127087
-0.30734349
-0.30305718
-0.29845806
-0.29357251
-0.288417
-0.28300231
-0.27733628
-0.2714252
-0.26527353
-0.25887997
-0.25224651
-0.2454433
-0.23853079
-0.23049227
-0.21952383
-0.33567984
-0.33217444
-0.32821026
-0.32407532
-0.3195627
-0.31473626
-0.30967786
-0.30442022
-0.29897357
-0.29334067
-0.28751967
-0.28150614
-0.27529504
-0.26888085
-0.2622531
-0.25540241
-0.24839157
-0.24130347
-0.23296905
-0.22090388
-0.3508488
-0.34529464
-0.33970011
-0.33427892
-0.32862395
-0.32278732
-0.31685276
-0.31083928
-0.30474113
-0.29854555
-0.29223533
-0.28579102
-0.2791935
-0.27242499
-0.26546564
-0.25829799
-0.25098295
-0.24364948
-0.23509373
-0.22215904
-0.36708941
-0.35938841
-0.35206147
-0.34525776
-0.33836534
-0.33142377
-0.32452087
-0.31766167
-0.31082196
-0.30397064
-0.2970721
-0.29008826
-0.28298112
-0.27571322
-0.2682433
-0.26052809
-0.25259508
-0.2445566
-0.23521128
-0.22113185
-0.38427976
-0.37432238
-0.3651541
-0.35686438
-0.34862547
-0.34046431
-0.33247291
-0.32464056
-0.31692277
-0.30926924
-0.3016265
-0.29394056
-0.28616014
-0.27823681
-0.27011993
-0.26175224
-0.25308449
-0.24392353
-0.23267994
-0.21641116
-0.20445192
-0.19454679
-0.18469104
-0.17496752
-0.16531638
-0.1557775
-0.1464085
-0.13724631
-0.12831938
-0.11965506
-0.11127777
-0.10320761
-0.095460925
-0.088050798
-0.080987197
-0.074277053
-0.067924443
-0.061930779
-0.056294982
-0.051013654
-0.04608127
-0.041490375
-0.037231788
-0.033294811
-0.029667453
-0.026336643
-0.023288447
-0.020508284
-0.017981129
-0.01569171
-0.013624687
-0.011764825
-0.010097144
-0.0086070647
-0.0072805278
-0.0061041124
-0.0050651456
-0.0041517861
-0.0033531995
-0.0026594434
-0.0020623977
-0.0015534461
-0.0011318192
-0.00078004674
-0.00054164582
-0.0002906817
-0.00042584036
0.00015665012
-0.0018686604
0.002912897
-0.20583796
-0.19548763
-0.18549738
-0.17577476
-0.16608727
-0.15649779
-0.14708566
-0.13788381
-0.12891751
-0.12021482
-0.11180065
-0.10369497
-0.095914063
-0.088471088
-0.081376066
-0.074635961
-0.068254877
-0.062234252
-0.056573016
-0.051267772
-0.046312983
-0.04170117
-0.03742312
-0.033468095
-0.029824056
-0.026477877
-0.023415565
-0.020622477
-0.018083521
-0.015783358
-0.013706581
-0.011837886
-0.010162226
-0.0086649546
-0.007331949
-0.0061497255
-0.0051055513
-0.0041875274
-0.0033847642
-0.0026872662
-0.0020868614
-0.0015748838
-0.0011504988
-0.00079622142
-0.00055530418
-0.00030236024
-0.00043351239
0.00014755863
-0.0018574251
0.0028833584
-0.20864299
-0.19735823
-0.18710624
-0.1774307
-0.16768826
-0.15800164
-0.14850811
-0.1392306
-0.13018639
-0.12140603
-0.11291615
-0.10473662
-0.096883813
-0.089371247
-0.082209232
-0.075404923
-0.068962587
-0.062883789
-0.057167548
-0.051810514
-0.046807163
-0.042149996
-0.037829752
-0.033835621
-0.030155467
-0.026776056
-0.023683268
-0.020862323
-0.018297989
-0.015974774
-0.01387712
-0.011989572
-0.010296931
-0.0087844009
-0.0074377152
-0.0062432499
-0.0051881379
-0.0042603513
-0.0034488782
-0.0027436052
-0.002136247
-0.0016180276
-0.0011879793
-0.00082856641
-0.0005825434
-0.00032552773
-0.00044871923
0.00012972377
-0.0018351202
0.0028248415
-0.21257361
-0.1998181
-0.18919447
-0.17969624
-0.16993029
-0.16012392
-0.15053518
-0.14116982
-0.13202798
-0.12314573
-0.11455418
-0.10627347
-0.0983203
-0.09070915
-0.083451106
-0.076553868
-0.070022148
-0.063857878
-0.058060357
-0.052626426
-0.04755068
-0.042825673
-0.038442139
-0.034389213
-0.030654664
-0.027225124
-0.024086315
-0.021223273
-0.018620563
-0.016262485
-0.014133258
-0.012217201
-0.010498892
-0.0089633127
-0.007595976
-0.0063830466
-0.0053114529
-0.004368971
-0.0035444019
-0.0028274521
-0.0022096633
-0.0016820911
-0.0012435672
-0.00087647367
-0.00062282841
-0.00035972227
-0.00047108088
0.00010352379
-0.0018020065
0.0027385435
-0.21725753
-0.20248695
-0.19139647
-0.18228003
-0.17258192
-0.16266207
-0.15298971
-0.14355231
-0.13431709
-0.12532746
-0.11662397
-0.10822844
-0.10015823
-0.092429437
-0.085054748
-0.078043011
-0.071399842
-0.065127931
-0.059227182
-0.053694895
-0.04852599
-0.043713234
-0.039247478
-0.035117888
-0.03131219
-0.02781691
-0.024617616
-0.02169915
-0.019045848
-0.016641756
-0.014470826
-0.012517096
-0.010764858
-0.0091988072
-0.0078041738
-0.0065668447
-0.0054734799
-0.0045115964
-0.0036697471
-0.0029373993
-0.0023058646
-0.0017659738
-0.0013162919
-0.00093909051
-0.00067541321
-0.00040429155
-0.0005000913
6.953805e-05
-0.0017586143
0.0026263482
-0.22222469
-0.20499769
-0.19336872
-0.18487067
-0.17539633
-0.16540702
-0.15568075
-0.14621029
-0.13691228
-0.12783148
-0.11902295
-0.11051383
-0.10232297
-0.094468716
-0.086966271
-0.079826532
-0.0730567
-0.066660776
-0.060639745
-0.054991765
-0.049712408
-0.04479492
-0.040230474
-0.036008425
-0.032116574
-0.028541427
-0.025268446
-0.022282304
-0.019567111
-0.01710665
-0.014884574
-0.012884603
-0.011090699
-0.0094872167
-0.0080590484
-0.0067917464
-0.0056716438
-0.0046859408
-0.0038228857
-0.0030716504
-0.0024232624
-0.0018682743
-0.0014049196
-0.0010153362
-0.0007393567
-0.00045841753
-0.00053512708
2.8482404e-05
-0.0017056581
0.0024907027
-0.2270015
-0.20711899
-0.19486072
-0.18714456
-0.1781223
-0.16818429
-0.15845044
-0.14899189
-0.13968055
-0.13054557
-0.12165463
-0.11304566
-0.10474168
-0.096763907
-0.089130935
-0.081856788
-0.074951172
-0.068420107
-0.062266258
-0.056489147
-0.051085423
-0.046049149
-0.041372092
-0.037044016
-0.033052959
-0.029385525
-0.026027159
-0.022962415
-0.020175208
-0.01764906
-0.015367318
-0.013313361
-0.011470782
-0.0098235597
-0.0083561995
-0.0070538697
-0.0059025252
-0.0048889975
-0.0040011789
-0.0032278951
-0.0025598387
-0.0019872359
-0.0015079259
-0.0011038968
-0.00081353391
-0.00052114768
-0.00057547701
-1.8871864e-05
-0.0016439751
0.0023344594
-0.23128303
-0.20921246
-0.19608603
-0.18891256
-0.18053474
-0.17088704
-0.16123402
-0.15181994
-0.14253851
-0.13339238
-0.12444848
-0.11575811
-0.10735293
-0.09925842
-0.091497031
-0.084086766
-0.077040705
-0.070367588
-0.06407232
-0.058156279
-0.052617601
-0.047451513
-0.042650664
-0.03820545
-0.034104335
-0.030334161
-0.02688046
-0.023727742
-0.020859776
-0.018259847
-0.015911004
-0.013796275
-0.01189887
-0.010202356
-0.0086908194
-0.007349005
-0.0061624462
-0.0051175613
-0.0042018414
-0.0034037207
-0.0027135115
-0.0021210695
-0.00162378
-0.0012034742
-0.00089685138
-0.00059157698
-0.00062048945
-7.182873e-05
-0.001574532
0.0021608179
-0.2327348
-0.21143656
-0.19766427
-0.19009074
-0.18219937
-0.17313272
-0.16375415
-0.1544606
-0.14527131
-0.1361829
-0.12724607
-0.11852055
-0.11004998
-0.10186646
-0.093997137
-0.086464687
-0.079286553
-0.072475147
-0.066038454
-0.059980457
-0.054301462
-0.048998454
-0.044065477
-0.039493998
-0.035273263
-0.031390652
-0.027832019
-0.024582011
-0.021624386
-0.018942292
-0.016518539
-0.01433584
-0.01237703
-0.010625265
-0.009064189
-0.0076780915
-0.0064520472
-0.0053720174
-0.0044250456
-0.0035991255
-0.0028841394
-0.0022695232
-0.0017521448
-0.0013136622
-0.00098886947
-0.00066919058
-0.00066983953
-0.00012953184
-0.0014987993
0.0019739759
-0.2232481
-0.21088817
-0.19903079
-0.19011678
-0.18220724
-0.17394402
-0.16519022
-0.15627435
-0.14737498
-0.13852199
-0.12974829
-0.12111479
-0.1126787
-0.1044836
-0.096565005
-0.088953214
-0.081672753
-0.074742208
-0.0681748
-0.061978933
-0.056158615
-0.050713879
-0.045641221
-0.040934043
-0.036583076
-0.032576789
-0.028901787
-0.025543188
-0.022484977
-0.019710339
-0.01720196
-0.014942306
-0.012913872
-0.011099399
-0.0094820757
-0.008045701
-0.0067748457
-0.0056549618
-0.0046725888
-0.0038152198
-0.0030722486
-0.0024326293
-0.001892651
-0.001433746
-0.0010886713
-0.00075273886
-0.00072268918
-0.00018962398
-0.0014190583
0.0017797347
-0.20175145
-0.20487191
-0.19856822
-0.18894827
-0.1806742
-0.17285159
-0.16456872
-0.15597638
-0.14733584
-0.13871323
-0.13013442
-0.12165648
-0.11334083
-0.10523599
-0.097381207
-0.089810254
-0.082551118
-0.075625627
-0.069049914
-0.062834992
-0.056987183
-0.051508549
-0.046397343
-0.041648468
-0.037253925
-0.033203237
-0.029483875
-0.026081649
-0.022981086
-0.020165778
-0.017618708
-0.015322538
-0.013259876
-0.011413508
-0.0097666109
-0.0083029262
-0.00700693
-0.0058639506
-0.0048603775
-0.0039835391
-0.0032226136
-0.0025664045
-0.0020106851
-0.0015373044
-0.001176079
-0.00082883078
-0.00076854657
-0.00024897863
-0.0013345596
0.0015868067
-0.19058501
-0.19480617
-0.19037596
-0.181088
-0.17323614
-0.16624849
-0.15884142
-0.15103292
-0.14310956
-0.13514923
-0.12716961
-0.11922423
-0.11137746
-0.10368209
-0.096181692
-0.088914583
-0.081913512
-0.075205012
-0.068809726
-0.062742924
-0.057014912
-0.051631434
-0.046594116
-0.041900928
-0.037546633
-0.033523231
-0.02982039
-0.026425861
-0.023325868
-0.020505476
-0.017948932
-0.015639977
-0.013562126
-0.011698922
-0.010034157
-0.0085520745
-0.0072375402
-0.0060761827
-0.0050546004
-0.004160278
-0.003382407
-0.0027099385
-0.0021380837
-0.0016498033
-0.0012706482
-0.00091251428
-0.00081613089
-0.00031830359
-0.0012343824
0.0013768103
-0.18108879
-0.18292722
-0.17977432
-0.17228444
-0.16537534
-0.15915912
-0.15258611
-0.14557045
-0.13836753
-0.13107378
-0.12370949
-0.1163227
-0.10897681
-0.10172684
-0.094618977
-0.087694474
-0.080989579
-0.074534633
-0.068354159
-0.062467281
-0.056888058
-0.051625827
-0.046685603
-0.042068513
-0.037772232
-0.033791419
-0.030118144
-0.026742313
-0.023652062
-0.020834139
-0.018274258
-0.015957426
-0.013868237
-0.011991147
-0.010310707
-0.0088117804
-0.0074797326
-0.0063005834
-0.0052612162
-0.0043493365
-0.0035541904
-0.0028649319
-0.0022761676
-0.0017721433
-0.0013736357
-0.0010038962
-0.00086759589
-0.00039447596
-0.0011223411
0.001145008
-0.1706506
-0.17015658
-0.16754999
-0.16216643
-0.15655377
-0.15115611
-0.14543899
-0.13929248
-0.13288542
-0.12631867
-0.11962757
-0.11285849
-0.10607176
-0.099323309
-0.092661575
-0.086130306
-0.079768753
-0.073610758
-0.067684581
-0.062013164
-0.056614381
-0.051501302
-0.046682531
-0.042162589
-0.037942328
-0.034019339
-0.030388377
-0.027041773
-0.023969842
-0.021161264
-0.018603453
-0.016282891
-0.014185448
-0.01229666
-0.010601991
-0.0090870563
-0.0077378333
-0.0065408293
-0.0054832916
-0.0045532102
-0.0037399339
-0.0030328543
-0.0024259846
-0.0019048762
-0.0014854332
-0.0011024472
-0.0009236986
-0.00047398946
-0.0010062552
0.00090190227
-0.15935367
-0.15725341
-0.15479195
-0.15114428
-0.14687436
-0.14235163
-0.13749329
-0.13224341
-0.1266813
-0.12089004
-0.11491968
-0.10881898
-0.10264424
-0.096450372
-0.090287033
-0.084199659
-0.07822971
-0.072413904
-0.066783827
-0.061365993
-0.056181981
-0.051248599
-0.046578139
-0.042178687
-0.038054489
-0.034206325
-0.030631904
-0.027326267
-0.024282183
-0.021490536
-0.018940692
-0.016620853
-0.014518378
-0.012620085
-0.010912522
-0.0093822142
-0.0080158828
-0.0068006362
-0.0057241807
-0.0047748658
-0.0039422054
-0.0032158615
-0.0025893008
-0.0020493273
-0.0016071034
-0.0012085671
-0.00098542564
-0.00055553234
-0.0008919227
0.00065569011
-0.14693793
-0.14426524
-0.14203676
-0.13968882
-0.13662961
-0.133004
-0.12898978
-0.1246128
-0.11989558
-0.11489423
-0.10966516
-0.104259
-0.098727896
-0.093124321
-0.087497785
-0.081894265
-0.076356282
-0.070922398
-0.065626721
-0.060498726
-0.055563249
-0.050840539
-0.04634641
-0.042092463
-0.038086374
-0.034332216
-0.03083081
-0.027580098
-0.024575517
-0.021810378
-0.01927623
-0.016963212
-0.014860389
-0.012956057
-0.011238034
-0.0096939169
-0.0083113195
-0.0070780781
-0.0059824676
-0.0050132861
-0.0041602907
-0.0034134532
-0.0027657738
-0.0022052116
-0.0017385005
-0.0013219019
-0.0010532239
-0.00063797436
-0.00078505331
0.00041488191
-0.13373658
-0.13134171
-0.12955818
-0.12815534
-0.12609677
-0.12333337
-0.12013099
-0.11657735
-0.11267236
-0.10844692
-0.10395531
-0.099248817
-0.094374621
-0.089380731
-0.084315188
-0.079223493
-0.074148113
-0.06912828
-0.064199588
-0.05939363
-0.054737817
-0.050255308
-0.045965048
-0.041881893
-0.0380168
-0.034377078
-0.03096668
-0.027786526
-0.024834848
-0.022107537
-0.019598497
-0.017299992
-0.015202977
-0.013297411
-0.011572557
-0.010017247
-0.0086201374
-0.0073699271
-0.0062555785
-0.0052664368
-0.0043925933
-0.0036243755
-0.0029544257
-0.0023717283
-0.0018790635
-0.0014418287
-0.001127355
-0.00072026572
-0.0006914521
0.00018852871
-0.12044517
-0.11872381
-0.11750303
-0.11679442
-0.11552862
-0.11354629
-0.1111008
-0.10830584
-0.10515856
-0.10167291
-0.097894746
-0.093872694
-0.089650189
-0.085269833
-0.080775579
-0.076211247
-0.07161838
-0.067035824
-0.062499543
-0.058042258
-0.053693112
-0.049477467
-0.04541683
-0.041528863
-0.037827484
-0.034323022
-0.031022441
-0.027929594
-0.025045523
-0.022368769
-0.019895696
-0.017620823
-0.015537141
-0.013636428
-0.011909546
-0.010346718
-0.0089377882
-0.0076724514
-0.006540481
-0.005531874
-0.004637157
-0.003847066
-0.0031540164
-0.0025478756
-0.0020280624
-0.0015676855
-0.001207974
-0.00080172339
-0.00061630179
-1.4797396e-05
-0.10757914
-0.10658492
-0.10593608
-0.10576048
-0.10511945
-0.10381506
-0.1020523
-0.099942932
-0.097487074
-0.094689469
-0.091585789
-0.088218789
-0.084627225
-0.080849016
-0.076923445
-0.072890489
-0.068789556
-0.064658256
-0.060531963
-0.056443525
-0.052422897
-0.048496841
-0.044688729
-0.041018457
-0.037502436
-0.03415366
-0.030981845
-0.027993611
-0.025192717
-0.022580326
-0.020155287
-0.017914433
-0.015852886
-0.013964358
-0.012241435
-0.010675862
-0.009258803
-0.0079810757
-0.0068333851
-0.0058064872
-0.0048914499
-0.0040794792
-0.0033629089
-0.0027323548
-0.0021845321
-0.0016987505
-0.0012950602
-0.00088211611
-0.0005634515
-0.00018810498
-0.095404662
-0.095040169
-0.094903066
-0.095150779
-0.095005453
-0.09427217
-0.093106681
-0.09160507
-0.089769076
-0.087598564
-0.085119772
-0.082367971
-0.079376366
-0.076177652
-0.072806415
-0.06929842
-0.065689476
-0.062014836
-0.058308445
-0.054602402
-0.050926588
-0.047308328
-0.043772115
-0.040339417
-0.037028583
-0.033854811
-0.030830203
-0.027963871
-0.025262099
-0.022728548
-0.020364489
-0.018169065
-0.01613956
-0.014271678
-0.01255982
-0.010997352
-0.009576865
-0.0082904146
-0.0071297482
-0.0060864843
-0.0051523382
-0.0043190549
-0.0035790374
-0.0029235419
-0.0023472501
-0.0018342212
-0.0013883668
-0.00096161128
-0.0005348946
-0.00032692359
-0.084050189
-0.08417661
-0.084456684
-0.085037844
-0.085284117
-0.085020108
-0.084362472
-0.083388203
-0.082098007
-0.080488509
-0.078577921
-0.076393726
-0.073963026
-0.071313033
-0.068473108
-0.065474498
-0.062349095
-0.059128791
-0.055845127
-0.052528655
-0.049208387
-0.045911411
-0.042662583
-0.039484257
-0.036396106
-0.033415004
-0.030554995
-0.027827323
-0.025240518
-0.022800534
-0.020510928
-0.01837307
-0.016386375
-0.014548551
-0.01285585
-0.011303325
-0.0098850767
-0.0085944863
-0.0074244409
-0.006367517
-0.0054161787
-0.0045627837
-0.0037999545
-0.0031195158
-0.0025147553
-0.0019732021
-0.0014873918
-0.0010406396
-0.00053049162
-0.00042995591
-0.073568751
-0.074052779
-0.074648155
-0.075480553
-0.076028827
-0.076140266
-0.075902407
-0.075374727
-0.074555347
-0.073438113
-0.072034508
-0.070364682
-0.06844952
-0.066310653
-0.063972074
-0.061460058
-0.058802216
-0.056026743
-0.05316202
-0.050236231
-0.047276778
-0.044309785
-0.041359743
-0.038449203
-0.035598523
-0.032825684
-0.030146176
-0.027572951
-0.025116436
-0.022784605
-0.020583094
-0.018515354
-0.016582839
-0.014785214
-0.013120579
-0.011585696
-0.010176222
-0.0088869302
-0.0077119249
-0.0066448221
-0.0056789277
-0.0048072879
-0.0040228884
-0.0033180915
-0.002685367
-0.0021146768
-0.001591353
-0.0011197028
-0.00054801144
-0.00049926602
-0.063967165
-0.064697652
-0.065515395
-0.066524137
-0.067295349
-0.067697497
-0.067796303
-0.067636724
-0.067214041
-0.066519628
-0.065559356
-0.064346851
-0.062897083
-0.061226233
-0.059352986
-0.057298543
-0.055085895
-0.052739191
-0.050283298
-0.047743415
-0.045144639
-0.042511459
-0.039867328
-0.037234325
-0.034632862
-0.032081434
-0.029596443
-0.027192078
-0.024880264
-0.02267066
-0.02057071
-0.018585742
-0.016719103
-0.014972316
-0.013345273
-0.01183643
-0.010443012
-0.0091612225
-0.0079864346
-0.006913371
-0.0059362602
-0.0050489116
-0.0042448076
-0.0035168564
-0.0028572023
-0.0022574717
-0.0016991725
-0.0011991686
-0.00058351469
-0.00053988987
-0.055226545
-0.056115965
-0.057078198
-0.05819821
-0.059123556
-0.059741541
-0.06010124
-0.060236051
-0.060138901
-0.059799194
-0.059218239
-0.058404103
-0.057366451
-0.056116394
-0.054667576
-0.053036253
-0.051240738
-0.049300903
-0.047237801
-0.045073297
-0.042829658
-0.040529141
-0.038193557
-0.035843896
-0.033500005
-0.031180306
-0.028901559
-0.026678694
-0.024524684
-0.02245049
-0.020465045
-0.018575293
-0.016786267
-0.015101203
-0.013521684
-0.012047799
-0.010678319
-0.0094108792
-0.0082421548
-0.0071680211
-0.0061836952
-0.0052838201
-0.0044624951
-0.0037132149
-0.003028199
-0.0024002254
-0.0018094856
-0.0012791067
-0.00063202219
-0.00055889091
-0.047312555
-0.048293681
-0.049338354
-0.050516096
-0.051537701
-0.052307186
-0.052860878
-0.053223163
-0.053385372
-0.053335603
-0.053071638
-0.052597022
-0.0519169
-0.051037914
-0.04996913
-0.048722183
-0.04731088
-0.045750819
-0.044059095
-0.042253996
-0.040354641
-0.038380604
-0.036351536
-0.034286794
-0.032205097
-0.030124225
-0.028060752
-0.026029828
-0.024045005
-0.022118122
-0.020259232
-0.018476585
-0.016776649
-0.015164174
-0.013642282
-0.012212594
-0.010875366
-0.0096296361
-0.0084733816
-0.007403657
-0.0064167167
-0.0055080991
-0.0046726257
-0.0039044395
-0.0031961468
-0.0025413788
-0.0019206819
-0.0013592045
-0.00068832805
-0.00056404773
-0.040180733
-0.041203206
-0.042282805
-0.043476398
-0.044547484
-0.045414912
-0.046105354
-0.046636322
-0.0469983
-0.047178784
-0.047173034
-0.046981099
-0.04660449
-0.046046104
-0.045311051
-0.044406841
-0.04334313
-0.042131447
-0.04078499
-0.039318396
-0.037747452
-0.036088775
-0.034359472
-0.032576819
-0.030757919
-0.0289194
-0.027077128
-0.025245965
-0.02343956
-0.021670182
-0.019948606
-0.018284035
-0.016684072
-0.015154732
-0.013700485
-0.012324334
-0.011027916
-0.0098116104
-0.0086746659
-0.0076153165
-0.0066308827
-0.0057178473
-0.0048718408
-0.004087727
-0.0033587287
-0.0026791921
-0.0020309787
-0.001438773
-0.00074776381
-0.00056249243
-0.033780953
-0.034808253
-0.035887749
-0.037065928
-0.038150163
-0.039072409
-0.039852131
-0.04050171
-0.041011438
-0.041368833
-0.041567546
-0.041605105
-0.041480265
-0.041192971
-0.04074508
-0.040140594
-0.039385515
-0.038487675
-0.037456611
-0.036303417
-0.035040532
-0.033681483
-0.032240612
-0.03073279
-0.02917312
-0.027576642
-0.025958055
-0.024331461
-0.022710134
-0.021106327
-0.019531112
-0.017994267
-0.016504193
-0.015067883
-0.013690915
-0.012377485
-0.011130462
-0.0099514666
-0.0088409551
-0.0077983125
-0.0068219291
-0.0059092634
-0.0050568207
-0.0042602564
-0.0035135691
-0.0028117866
-0.0021385139
-0.0015168271
-0.00080672482
-0.0005596537
-0.028060795
-0.02906751
-0.030122182
-0.031262772
-0.032333114
-0.033276645
-0.034107516
-0.034834354
-0.035447764
-0.035935792
-0.036291249
-0.036510004
-0.036588877
-0.036525631
-0.036319606
-0.035971969
-0.035485655
-0.034865286
-0.034117119
-0.033248965
-0.032270055
-0.031190857
-0.030022867
-0.028778375
-0.02747022
-0.026111526
-0.024715446
-0.023294907
-0.021862382
-0.020429674
-0.019007741
-0.017606539
-0.01623491
-0.014900504
-0.013609731
-0.012367747
-0.011178472
-0.010044622
-0.008967764
-0.0079483731
-0.0069858846
-0.0060787399
-0.0052243609
-0.0044192519
-0.0036582892
-0.0029372063
-0.0022414368
-0.0015922008
-0.00086284664
-0.00055876229
-0.022967811
-0.023937274
-0.02495071
-0.026039037
-0.027076372
-0.028016122
-0.028868542
-0.029639553
-0.030320427
-0.030900101
-0.03137115
-0.031728498
-0.031967746
-0.032085179
-0.032078318
-0.031946167
-0.031689221
-0.031309448
-0.030810294
-0.030196666
-0.02947486
-0.028652455
-0.027738164
-0.026741662
-0.025673393
-0.024544354
-0.023365874
-0.022149377
-0.02090617
-0.019647224
-0.018382986
-0.017123212
-0.015876818
-0.014651775
-0.013455022
-0.012292414
-0.0111687
-0.010087517
-0.0090514033
-0.0080618305
-0.0071192231
-0.006222985
-0.0053714675
-0.0045620608
-0.0037905739
-0.0030534909
-0.002337983
-0.0016636621
-0.00091484533
-0.000560975
-0.018451368
-0.019373643
-0.020335952
-0.021363352
-0.022355104
-0.023273217
-0.024125079
-0.024914683
-0.025634176
-0.026273611
-0.026825769
-0.027285183
-0.027646818
-0.027906082
-0.028059297
-0.028103932
-0.028038651
-0.027863338
-0.027579149
-0.027188533
-0.026695227
-0.026104196
-0.025421558
-0.024654467
-0.023810973
-0.02289986
-0.021930464
-0.020912483
-0.019855772
-0.018770153
-0.017665223
-0.016550181
-0.015433671
-0.014323647
-0.013227268
-0.012150804
-0.011099587
-0.010077964
-0.0090892805
-0.0081358756
-0.0072190749
-0.0063391937
-0.0054954946
-0.0046862636
-0.0039082612
-0.0031587639
-0.0024265297
-0.0017300039
-0.00096215558
-0.00056595293
-0.014463736
-0.01533397
-0.016240281
-0.017202794
-0.01814166
-0.019026264
-0.019861868
-0.020651085
-0.021387033
-0.022060985
-0.022666221
-0.023197285
-0.023648947
-0.024016222
-0.024294748
-0.024481004
-0.024572377
-0.024567215
-0.024464899
-0.024265903
-0.023971824
-0.023585377
-0.023110364
-0.022551616
-0.021914903
-0.021206827
-0.020434686
-0.019606324
-0.018729965
-0.017814044
-0.016867034
-0.015897278
-0.014912832
-0.013921324
-0.012929822
-0.011944729
-0.010971697
-0.010015558
-0.0090802696
-0.0081688816
-0.0072835027
-0.0064252779
-0.0055943324
-0.0047898278
-0.0040094646
-0.0032513376
-0.0025056462
-0.0017901137
-0.001004551
-0.00057259907
-0.01096147
-0.011778492
-0.012627644
-0.01352484
-0.014407606
-0.015251612
-0.016060526
-0.016835958
-0.017572003
-0.018261169
-0.018897398
-0.019475514
-0.019990407
-0.020437051
-0.020810806
-0.021107608
-0.021324038
-0.021457393
-0.021505764
-0.021468118
-0.021344351
-0.021135322
-0.020842859
-0.020469742
-0.020019673
-0.019497201
-0.018907641
-0.018256968
-0.017551691
-0.016798713
-0.016005191
-0.015178381
-0.014325493
-0.013453552
-0.012569259
-0.011678877
-0.01078812
-0.0099020664
-0.0090250793
-0.0081607429
-0.0073118056
-0.0064801325
-0.0056666335
-0.0048712975
-0.004092727
-0.0033298393
-0.0025741556
-0.0018430349
-0.0010418889
-0.00057967978
-0.0079055541
-0.0086709485
-0.0094645892
-0.010298769
-0.011125458
-0.01192566
-0.012701819
-0.013454796
-0.014179611
-0.014869947
-0.015520481
-0.016126471
-0.016683127
-0.017185624
-0.017629337
-0.01801
-0.018323767
-0.018567287
-0.018737786
-0.018833149
-0.018851994
-0.018793719
-0.018658543
-0.018447523
-0.018162554
-0.017806345
-0.017382372
-0.01689482
-0.016348491
-0.015748714
-0.015101221
-0.014412033
-0.013687324
-0.012933297
-0.012156055
-0.011361476
-0.010555099
-0.0097420222
-0.0089268017
-0.0081133703
-0.0073049559
-0.0065040133
-0.0057121348
-0.0049300608
-0.004157236
-0.003393379
-0.0026312346
-0.0018880465
-0.0010740285
-0.00058619332
-0.0052624359
-0.0059794576
-0.0067210186
-0.0074962462
-0.0082691007
-0.0090250913
-0.0097657057
-0.010491227
-0.011197505
-0.0118793
-0.012532023
-0.013151433
-0.013733169
-0.014272753
-0.014765769
-0.015207987
-0.015595417
-0.015924378
-0.016191575
-0.016394177
-0.016529893
-0.016597034
-0.01659457
-0.016522166
-0.016380213
-0.016169834
-0.015892878
-0.015551888
-0.015150061
-0.014691181
-0.014179546
-0.013619867
-0.013017172
-0.012376696
-0.011703764
-0.011003674
-0.010281589
-0.0095424179
-0.008790716
-0.0080305797
-0.0072655522
-0.0064985349
-0.0057316825
-0.0049663916
-0.0042028687
-0.0034415891
-0.0026764322
-0.0019246775
-0.00110082
-0.0005914659
-0.0030061795
-0.003679751
-0.0043743478
-0.0050964172
-0.0058198009
-0.0065337579
-0.007239012
-0.007935387
-0.0086194533
-0.009286915
-0.0099338666
-0.010556577
-0.011151151
-0.011713525
-0.012239601
-0.012725337
-0.013166793
-0.013560189
-0.013901972
-0.014188886
-0.014418047
-0.014587003
-0.014693804
-0.014737045
-0.014715921
-0.014630251
-0.014480501
-0.014267787
-0.013993859
-0.013661074
-0.013272354
-0.012831123
-0.012341231
-0.011806873
-0.011232493
-0.01062268
-0.0099820639
-0.0093152061
-0.0086264898
-0.0079200116
-0.0071994729
-0.0064680785
-0.0057284173
-0.0049824315
-0.0042309925
-0.0034752644
-0.0027101659
-0.0019530884
-0.0011224257
-0.00059527072
-0.001110853
-0.0017460681
-0.0023992058
-0.0030743209
-0.0037533385
-0.0044286324
-0.0051003157
-0.0057678343
-0.006428357
-0.0070783913
-0.0077146359
-0.0083338343
-0.0089325412
-0.00950712
-0.010053832
-0.010568901
-0.011048553
-0.011489059
-0.011886791
-0.012238286
-0.012540307
-0.012789905
-0.012984486
-0.013121866
-0.013200326
-0.01321866
-0.013176212
-0.013072901
-0.012909237
-0.01268632
-0.012405822
-0.012069963
-0.011681459
-0.011243468
-0.010759515
-0.010233412
-0.0096691632
-0.0090708672
-0.008442608
-0.0077883459
-0.0071118043
-0.0064163576
-0.0057049022
-0.0049798096
-0.0042425087
-0.003494766
-0.0027324329
-0.0019730323
-0.0011385326
-0.00059723192
0.00041959772
-0.00018428728
-0.00080322302
-0.0014395134
-0.0020814736
-0.002723912
-0.0033664471
-0.0040082256
-0.0046468971
-0.0052796193
-0.0059035931
-0.0065159701
-0.0071137046
-0.0076935501
-0.0082521171
-0.0087859162
-0.0092913873
-0.0097649348
-0.010202971
-0.010601969
-0.010958516
-0.011269369
-0.011531518
-0.011742242
-0.011899168
-0.012000327
-0.0120442
-0.012029767
-0.011956532
-0.011824552
-0.01163444
-0.011387365
-0.011085034
-0.010729654
-0.010323888
-0.0098707872
-0.0093737186
-0.0088362757
-0.0082621801
-0.0076551741
-0.0070189068
-0.0063568173
-0.0056719998
-0.0049671437
-0.0042441231
-0.0035052043
-0.0027470465
-0.0019872795
-0.0011510815
-0.00059837096
0.0016291558
0.0010511068
0.00046021267
-0.00014422481
-0.00075548443
-0.0013703102
-0.001987943
-0.0026072831
-0.0032263444
-0.0038427915
-0.0044542238
-0.0050581236
-0.0056517752
-0.0062322627
-0.0067965028
-0.0073412717
-0.007863227
-0.0083589346
-0.0088249035