/*--------------------------------*- C++ -*----------------------------------*\
  =========                 |
  \\      /  F ield         | OpenFOAM: The Open Source CFD Toolbox
   \\    /   O peration     | Website:  https://openfoam.org
    \\  /    A nd           | Version:  6
     \\/     M anipulation  |
\*---------------------------------------------------------------------------*/
FoamFile
{
    version     2.0;
    format      ascii;
    class       volVectorField;
    location    "213";
    object      UMean;
}
// * * * * * * * * * * * * * * * * * * * * * * * * * * * * * * * * * * * * * //

dimensions      [0 1 -1 0 0 0 0];

internalField   nonuniform List<vector> 
9200
(
(0.001686805 0.00092466356 -6.0910398e-20)
(0.015828565 -0.0036191527 4.8296422e-20)
(0.042107259 -0.0083399073 -3.9853545e-20)
(0.077807459 -0.013026218 -6.3116139e-20)
(0.12104527 -0.017458221 1.9599595e-20)
(0.17056382 -0.021201844 3.4306566e-20)
(0.22526537 -0.02397039 -1.2831222e-20)
(0.28413584 -0.025621934 9.7066155e-21)
(0.34622741 -0.026101243 1.7868121e-20)
(0.41062714 -0.025416459 1.5792903e-21)
(0.47643374 -0.023627816 -2.2876937e-20)
(0.54274915 -0.020836623 2.1985555e-20)
(0.608682 -0.01717429 -4.2908314e-20)
(0.67336079 -0.012791192 -2.2548719e-20)
(0.73595514 -0.0078448617 6.3009895e-21)
(0.79570235 -0.0024902996 -2.6883355e-20)
(0.85195238 0.0031430102 2.7013843e-20)
(0.90428967 0.00909727 2.3966241e-20)
(0.95235158 0.015501299 -2.6104894e-22)
(0.99349426 0.019032994 -1.5945211e-21)
(0.0060891723 -0.0019037308 -1.7547786e-20)
(0.029620465 -0.010675705 4.1503788e-20)
(0.066225944 -0.017423454 2.4186884e-20)
(0.11278133 -0.022560358 -1.2051141e-19)
(0.16709761 -0.026273507 -1.319236e-20)
(0.22765868 -0.028362814 7.6773209e-20)
(0.29309915 -0.028744098 -3.715393e-20)
(0.36212565 -0.027463551 -8.8516337e-21)
(0.43350593 -0.024637628 3.6218356e-20)
(0.50604611 -0.020433941 -4.5794232e-20)
(0.57858022 -0.015063427 -3.22937e-20)
(0.64997784 -0.0087699009 7.6668344e-20)
(0.71916484 -0.0018181997 4.0731903e-20)
(0.78515257 0.0055175056 -7.2425511e-20)
(0.84707109 0.012963684 1.558067e-20)
(0.90420108 0.020252109 -3.9142408e-20)
(0.95601301 0.027133678 -1.4827175e-20)
(1.0022642 0.033450932 7.5557412e-20)
(1.0428677 0.038798426 3.2315677e-20)
(1.0760919 0.040083978 -8.5192066e-20)
(0.011899712 -0.0046378284 3.7490199e-20)
(0.047140145 -0.017174698 2.328407e-21)
(0.095845644 -0.025201713 2.2697863e-20)
(0.15453725 -0.029878734 1.0178088e-21)
(0.22073133 -0.031884938 -4.1894304e-20)
(0.29262809 -0.031318513 1.9563646e-20)
(0.36856099 -0.028358199 1.3801352e-20)
(0.44692649 -0.023295983 -5.275944e-20)
(0.52619011 -0.016472788 6.0295325e-20)
(0.60488303 -0.0082610421 1.5317132e-20)
(0.68161334 0.000942957 -5.76728e-20)
(0.75509493 0.010732696 -1.9487115e-20)
(0.82418561 0.020707929 9.3263878e-21)
(0.88792646 0.030490847 2.4881684e-20)
(0.94557573 0.039739839 -1.2029974e-20)
(0.99663045 0.048158235 2.9513458e-20)
(1.0408375 0.05550807 -2.1458099e-20)
(1.0782219 0.061656913 -7.3833621e-20)
(1.1089625 0.066342086 -2.4356142e-20)
(1.1322531 0.067703213 5.0654427e-20)
(0.01921219 -0.0070280422 2.4857705e-20)
(0.068498982 -0.022419865 5.2354454e-20)
(0.13094256 -0.030635324 2.0502585e-20)
(0.2027853 -0.033703998 1.3714039e-20)
(0.28126806 -0.032883744 1.814163e-20)
(0.36429195 -0.02864019 -4.9790028e-20)
(0.4498745 -0.021478724 -2.6879422e-20)
(0.53610439 -0.011993706 0)
(0.62117621 -0.000795682 1.5440454e-20)
(0.70341615 0.011508499 -6.6639737e-21)
(0.78131926 0.024326978 -1.0330647e-19)
(0.85359745 0.037102402 -1.6477207e-20)
(0.919226 0.049333735 6.8875033e-20)
(0.97747875 0.060595294 4.7713366e-22)
(1.0279453 0.070550499 -1.6562999e-21)
(1.0705261 0.078958303 2.3074433e-20)
(1.105407 0.085679428 -5.3933224e-21)
(1.1330328 0.090704506 -6.4061334e-20)
(1.1539894 0.094013182 -4.810804e-20)
(1.1682797 0.094659618 7.1463018e-20)
(0.02805038 -0.0087919335 -3.8413172e-21)
(0.093587387 -0.025660784 -4.8172898e-21)
(0.17111234 -0.032652466 5.8025075e-20)
(0.25669774 -0.032777316 1.938377e-20)
(0.34734997 -0.027953648 -3.3500807e-20)
(0.44068212 -0.019083595 1.2407711e-20)
(0.53442153 -0.0070582225 2.7638878e-21)
(0.62640738 0.0071820553 3.5517909e-20)
(0.71466331 0.022734268 5.9588134e-21)
(0.79745523 0.038759305 -1.4151592e-20)
(0.87334937 0.054498736 6.3789038e-20)
(0.94126579 0.069298952 -6.0861178e-20)
(1.0005137 0.082633599 -1.3892161e-19)
(1.0508002 0.094117851 -5.8529819e-21)
(1.0922102 0.10351238 8.7000278e-20)
(1.1251587 0.11071645 0)
(1.150323 0.11575656 1.0695826e-20)
(1.1685721 0.11878916 -1.6021504e-20)
(1.1808518 0.11999881 -9.0956785e-21)
(1.1877386 0.1189966 2.1576768e-20)
(0.038348001 -0.0096247566 -5.1399626e-21)
(0.12204445 -0.026135924 4.4461447e-21)
(0.21556154 -0.030233684 -8.9786394e-21)
(0.31494956 -0.025990113 2.9022686e-20)
(0.41705727 -0.016048655 -3.0624862e-20)
(0.51926605 -0.001805024 -1.7624045e-20)
(0.619098 0.015424718 3.8161522e-20)
(0.71427066 0.03434081 4.7678492e-21)
(0.80280883 0.053765128 -2.6112302e-20)
(0.88312637 0.072675095 7.3229646e-20)
(0.95408789 0.090222785 2.8771709e-22)
(1.0150441 0.10575608 -8.4392514e-20)
(1.0658306 0.11883079 0)
(1.1067287 0.12920777 4.1193037e-20)
(1.1383926 0.13683521 5.7026013e-21)
(1.161755 0.14181869 -8.0470748e-20)
(1.1779219 0.14438695 -2.0341088e-20)
(1.1880765 0.14486948 -1.2855224e-20)
(1.1933735 0.1436088 -1.5229446e-20)
(1.1946695 0.14054752 4.1731956e-20)
(0.049935746 -0.0092204151 -1.7306429e-20)
(0.15324215 -0.023131727 -3.098138e-21)
(0.26311738 -0.022501825 3.0671914e-20)
(0.37577845 -0.01249517 3.7654716e-20)
(0.48803948 0.0034893656 -2.048161e-20)
(0.59716472 0.023534865 -7.192667e-20)
(0.70062332 0.04589949 -2.9454528e-20)
(0.79620671 0.068959019 8.2286202e-20)
(0.8821686 0.091330755 9.2541652e-21)
(0.95731067 0.11190954 -2.582156e-20)
(1.0210214 0.12987872 1.4054168e-20)
(1.0732657 0.14471426 -4.5358595e-21)
(1.1145261 0.15617141 0)
(1.145702 0.16425157 2.8265243e-20)
(1.1679857 0.16915392 -8.2225203e-20)
(1.1827305 0.17121875 -3.2609058e-20)
(1.1913287 0.17087247 8.3715412e-20)
(1.1951138 0.16858812 -4.679056e-21)
(1.195281 0.16480796 3.5998601e-21)
(1.1927388 0.1596594 2.8102492e-20)
(0.06253534 -0.007299293 -3.2557174e-20)
(0.18629155 -0.016054418 -8.3329821e-20)
(0.31227309 -0.0088195227 1.75943e-21)
(0.43708836 0.0081901372 7.2373075e-20)
(0.55768909 0.030843703 6.4394338e-20)
(0.67139823 0.056723492 -7.339989e-20)
(0.7758459 0.083716204 1.8225755e-22)
(0.86914127 0.10996715 8.9289578e-20)
(0.95001726 0.13401504 5.0749249e-20)
(1.0178913 0.15481678 -5.6486836e-20)
(1.0728526 0.17173341 -9.5963414e-20)
(1.1155848 0.18449946 -3.2782166e-21)
(1.1472386 0.1931698 4.3652566e-20)
(1.1692752 0.19804754 -6.7745168e-21)
(1.1833053 0.19960338 -1.3155486e-20)
(1.1909442 0.19839702 2.0081572e-20)
(1.1936987 0.19501098 4.5181804e-20)
(1.1928925 0.19000674 -4.4976545e-20)
(1.1896265 0.183864 -1.0519717e-19)
(1.1847185 0.17680047 2.5452691e-20)
(0.07573005 -0.0036389084 -3.5689594e-20)
(0.22000439 -0.0045057385 -1.7539041e-19)
(0.36116374 0.011128577 8.5002087e-20)
(0.49645407 0.036123426 9.5561434e-20)
(0.62318369 0.065705258 5.9535555e-20)
(0.73896481 0.097037177 8.9262469e-21)
(0.84184349 0.12775251 -1.0972875e-19)
(0.93050391 0.15591934 0)
(1.0043867 0.18016902 -7.1566319e-20)
(1.0636953 0.19968965 -1.5821637e-20)
(1.1093107 0.21416677 5.6621073e-20)
(1.1426393 0.22370207 1.1309554e-20)
(1.1654249 0.22871179 -4.7027146e-20)
(1.1795549 0.22981583 -5.0464413e-20)
(1.1868904 0.22773237 2.5107989e-20)
(1.1891357 0.22318959 4.6241825e-20)
(1.1877576 0.21686239 -5.7214519e-20)
(1.1839509 0.20933699 -1.1033858e-19)
(1.178643 0.20107626 -3.083039e-21)
(1.1724949 0.19233197 2.7679021e-20)
(0.088948136 0.0019110593 -3.9190089e-21)
(0.25289785 0.01170333 8.9573325e-20)
(0.40760432 0.03734059 -1.4816662e-20)
(0.55120846 0.070962712 -8.7453511e-20)
(0.68162439 0.10731973 4.6588592e-20)
(0.79701149 0.14331123 5.0110306e-20)
(0.89608939 0.17650449 5.7301494e-21)
(0.97834338 0.20509673 -1.0273508e-19)
(1.0440855 0.22801156 -2.5898366e-21)
(1.0943855 0.24483752 5.2195121e-20)
(1.1309063 0.25570636 6.1700833e-21)
(1.1556874 0.26115256 -2.0392594e-20)
(1.1709182 0.26196532 -7.7905628e-20)
(1.1787377 0.25904941 -6.3567719e-21)
(1.1810838 0.25331057 4.4651934e-20)
(1.1796017 0.2455742 3.7924337e-20)
(1.1756086 0.2365386 2.0159106e-20)
(1.1701055 0.22675789 -5.4571788e-20)
(1.1638199 0.2166397 1.2901656e-20)
(1.1572422 0.20644104 8.4361807e-20)
(-0.0013252231 0.0014534913 -8.6550643e-22)
(-0.0047620336 0.0031918466 1.8899271e-21)
(-0.010795335 0.0041008409 1.7568072e-21)
(-0.017672399 0.0044527833 -1.197581e-21)
(-0.024465216 0.0044195032 -2.2801862e-21)
(-0.03074536 0.0041173925 2.411972e-21)
(-0.036239774 0.0036312624 -8.2592841e-21)
(-0.040773363 0.0030224179 -7.1278818e-21)
(-0.044251147 0.0023344575 1.2848088e-20)
(-0.046632259 0.0015981217 -1.1048404e-20)
(-0.047909736 0.00083483589 -2.0302871e-22)
(-0.048097703 5.9281464e-05 4.1212618e-21)
(-0.047222881 -0.00071865997 -6.7483128e-22)
(-0.045318805 -0.0014923665 2.5084949e-20)
(-0.042422199 -0.0022570885 2.7502708e-22)
(-0.03857247 -0.0030084751 -4.4572338e-20)
(-0.033814113 -0.0037419513 8.2841943e-21)
(-0.028188449 -0.0044554617 2.57446e-20)
(-0.021705972 -0.005147532 -4.717846e-20)
(-0.01442939 -0.0057690513 -2.9741852e-20)
(-0.0016839848 0.0042311652 -5.6739849e-21)
(-0.0053940959 0.0092688693 9.7992855e-21)
(-0.011183807 0.011887654 -1.0489445e-20)
(-0.017468667 0.012879101 5.574649e-21)
(-0.023419925 0.0127448 6.6151351e-21)
(-0.028660483 0.011826309 9.0527298e-22)
(-0.032953105 0.010372635 -2.7230194e-20)
(-0.03614868 0.008563698 -2.3025751e-21)
(-0.038169785 0.0065274351 2.3004642e-20)
(-0.038986943 0.0043540324 -5.6962651e-21)
(-0.038600287 0.0021063081 -2.4362146e-20)
(-0.037027993 -0.0001727409 5.4313627e-21)
(-0.034298657 -0.0024542522 2.4736619e-20)
(-0.030445977 -0.0047189788 1.1296638e-20)
(-0.025504979 -0.0069532093 2.3995358e-20)
(-0.019512486 -0.0091446213 -2.1467935e-20)
(-0.012516978 -0.011280396 -2.336191e-20)
(-0.0045702557 -0.01335397 2.3037992e-20)
(0.004389979 -0.01535068 2.8658811e-20)
(0.014555066 -0.017101959 1.6681334e-20)
(-0.0023317619 0.0066245546 -4.6084518e-21)
(-0.0064918217 0.014442704 -4.8759275e-21)
(-0.011737207 0.018466636 6.5510037e-23)
(-0.016808586 0.019927657 -6.958424e-23)
(-0.021067662 0.019612155 7.516794e-21)
(-0.024236239 0.018061962 1.1833219e-20)
(-0.026146625 0.015672948 -4.3784268e-21)
(-0.026700235 0.012731294 -2.1282236e-20)
(-0.025853994 0.009440789 7.3799744e-21)
(-0.023601091 0.0059452955 1.4400197e-20)
(-0.019956292 0.0023451056 6.6411086e-21)
(-0.014946856 -0.0012911509 1.9836164e-20)
(-0.0086065733 -0.0049175983 1.8957169e-21)
(-0.00097145664 -0.0085040946 -3.6693698e-20)
(0.0079240392 -0.012029562 1.5387466e-21)
(0.01804548 -0.015475455 -2.3461649e-20)
(0.02933547 -0.018824405 -2.6692925e-20)
(0.041718442 -0.022067731 4.9545597e-20)
(0.055378095 -0.025152111 2.7437777e-20)
(0.071002036 -0.027712009 4.7119039e-22)
(-0.0031456627 0.0084222732 -5.7261803e-21)
(-0.0077721075 0.018211551 -1.1135957e-20)
(-0.01209726 0.023163899 4.478865e-21)
(-0.015306878 0.024830109 4.6644461e-21)
(-0.0170256 0.024212059 2.1128863e-21)
(-0.01711385 0.022012978 8.6317555e-21)
(-0.015502802 0.018748295 1.0702354e-20)
(-0.012166721 0.014790872 -1.6013556e-21)
(-0.007113209 0.010406827 -1.28464e-20)
(-0.00037026764 0.0057844783 -3.2264518e-20)
(0.0080233258 0.001055313 1.598907e-22)
(0.018023103 -0.0036906327 4.4531124e-20)
(0.029583248 -0.008393638 -1.975443e-20)
(0.042658155 -0.01301488 -1.3331437e-20)
(0.057206525 -0.017528372 3.0697266e-22)
(0.073189661 -0.021913331 3.4913635e-20)
(0.090535306 -0.026155233 -1.6418219e-20)
(0.109126 -0.030253015 -5.6935058e-20)
(0.12927264 -0.034090039 4.8438357e-20)
(0.15237037 -0.036983463 3.5129505e-20)
(-0.0039612956 0.0094802364 -4.6700353e-22)
(-0.0088479645 0.020221028 -1.3263566e-20)
(-0.011763574 0.025493981 -3.8262682e-20)
(-0.012414055 0.027027546 -6.9751416e-21)
(-0.010736054 0.025955207 -3.3729858e-21)
(-0.0067581762 0.023093337 7.1923711e-21)
(-0.00053401447 0.019042546 -5.4317783e-21)
(0.0078698817 0.014237324 -9.9424167e-21)
(0.018379419 0.0089884381 2.4161644e-20)
(0.030918102 0.0035162134 5.4346653e-21)
(0.045411145 -0.0020250457 -2.7999784e-20)
(0.061785369 -0.0075295367 1.1902939e-20)
(0.079969618 -0.012927123 0)
(0.099895276 -0.018173475 1.3044891e-20)
(0.12149931 -0.023241254 -1.0434353e-20)
(0.14472349 -0.02811259 -1.5523005e-20)
(0.16946743 -0.032786057 -1.0374598e-21)
(0.19554961 -0.03728897 -2.6032653e-21)
(0.22336769 -0.041439309 4.8167461e-20)
(0.25517227 -0.044096147 -1.1881003e-20)
(-0.004590837 0.0097310025 -7.7981225e-21)
(-0.0092626326 0.02029 2.6529155e-20)
(-0.010126594 0.025200226 -1.1823144e-20)
(-0.0074404493 0.026223569 -2.9947166e-20)
(-0.0014784621 0.024536528 -2.9391681e-20)
(0.007543422 0.021016206 -1.6379363e-20)
(0.01943171 0.016309655 -8.9752983e-22)
(0.034011021 0.010883756 6.1222887e-21)
(0.051125739 0.005073153 2.1335913e-20)
(0.07063628 -0.00088399502 7.9925561e-21)
(0.092414009 -0.006820787 -7.7244473e-21)
(0.11633862 -0.012622782 -1.9583638e-21)
(0.14229434 -0.018214696 -4.1225206e-20)
(0.17016723 -0.02355064 -1.3645498e-20)
(0.19984694 -0.028605827 2.0498667e-20)
(0.2312279 -0.03337066 -2.2755862e-20)
(0.26415839 -0.037867389 -9.5886171e-21)
(0.29836791 -0.042180354 3.1879839e-20)
(0.33426684 -0.046097583 5.2900301e-20)
(0.37501121 -0.047908966 3.6242283e-21)
(-0.0048390212 0.0091802953 1.7310544e-20)
(-0.0085225286 0.018412828 1.4968041e-20)
(-0.0065033596 0.022269832 5.4455923e-20)
(0.00041160684 0.022413859 2.5391264e-20)
(0.011604596 0.019978571 2.0040834e-22)
(0.02666223 0.0158488 -4.2957488e-20)
(0.045238875 0.01067785 -2.6263953e-20)
(0.067037419 0.0049350481 1.133327e-20)
(0.091802428 -0.0010438573 1.5565239e-20)
(0.11930979 -0.0070200973 -1.4002337e-20)
(0.14935534 -0.012826842 -4.7605305e-20)
(0.18174585 -0.018350963 3.1980972e-20)
(0.21629137 -0.023519922 2.1321476e-20)
(0.2527996 -0.028292847 -2.9545863e-20)
(0.29107569 -0.032653739 1.2585598e-20)
(0.33092612 -0.036608176 2.5769711e-20)
(0.37211237 -0.040212119 8.7067035e-21)
(0.41424858 -0.043637963 -1.288501e-20)
(0.45766908 -0.046721908 -1.4526893e-20)
(0.50636247 -0.047166168 7.4180709e-21)
(-0.0045140869 0.0078949142 1.1642192e-20)
(-0.0061242694 0.014742083 -2.5265034e-20)
(-0.00017314494 0.016923052 8.4903168e-21)
(0.012007529 0.015885635 3.6019571e-20)
(0.02946386 0.012641078 5.5356766e-20)
(0.051581836 0.008031836 2.1725202e-20)
(0.077854124 0.0026789276 -6.2634372e-21)
(0.10784328 -0.0029781133 -1.3172707e-20)
(0.14117317 -0.0086268271 -6.7183344e-21)
(0.17750921 -0.014047265 3.6806848e-20)
(0.2165396 -0.019088956 -5.0222554e-21)
(0.25796119 -0.023653942 -1.7991438e-20)
(0.30146846 -0.027684809 -2.0974191e-20)
(0.3467457 -0.031157203 -5.0822928e-20)
(0.39346602 -0.03407511 2.4715997e-20)
(0.44129935 -0.036470712 -1.4994696e-20)
(0.48988036 -0.038447073 2.7790537e-20)
(0.53869363 -0.040299798 2.2460177e-20)
(0.58793038 -0.042035961 -8.9155855e-20)
(0.64221879 -0.040932186 2.8717262e-22)
(-0.0034348655 0.0059886248 2.2749767e-20)
(-0.0015804825 0.0095656525 -2.7826372e-20)
(0.0095763946 0.0095954214 -4.7260892e-20)
(0.028212145 0.0072104173 -2.8856229e-20)
(0.053052132 0.0032279885 -2.1762245e-21)
(0.083277032 -0.0015996322 1.399023e-20)
(0.11820423 -0.0067226107 -3.0356372e-21)
(0.15723668 -0.011762884 1.9308866e-20)
(0.19984892 -0.016458526 9.4384047e-21)
(0.24555983 -0.020631889 -1.2155149e-20)
(0.29390779 -0.024169846 9.6401805e-21)
(0.34443277 -0.02700893 -2.5579308e-20)
(0.39666352 -0.029124677 8.8884255e-21)
(0.4501093 -0.030524978 1.7938737e-20)
(0.50425896 -0.031246088 -2.9950873e-21)
(0.55859105 -0.031354497 1.8943835e-21)
(0.61255837 -0.031001167 -5.6682645e-22)
(0.66549402 -0.030588842 2.1011464e-20)
(0.71741293 -0.030318888 3.9910662e-21)
(0.77334706 -0.02754923 -2.0814949e-21)
(-0.0014315231 0.0036107618 2.4804516e-20)
(0.005560447 0.0032921208 6.0388883e-20)
(0.023395416 0.00093527528 -5.1432189e-20)
(0.049793247 -0.0027371652 -1.0494224e-20)
(0.083172214 -0.0071738156 2.1452948e-20)
(0.12250348 -0.011759602 2.2647604e-21)
(0.1669131 -0.016055913 -3.1548374e-20)
(0.21561702 -0.019782751 7.4177637e-21)
(0.2679037 -0.022761893 7.5362038e-21)
(0.32310211 -0.024889031 -2.7938781e-20)
(0.38055431 -0.026118154 1.3727522e-21)
(0.43959824 -0.026448824 -3.9712078e-20)
(0.49955842 -0.025915773 -3.8845342e-20)
(0.55974285 -0.02458058 7.0233084e-20)
(0.6194459 -0.022524345 5.9430518e-21)
(0.67795534 -0.019846746 -1.6189491e-20)
(0.73453757 -0.016706646 2.0583507e-20)
(0.78836431 -0.013408077 -9.656483e-22)
(0.83897789 -0.0099752067 2.0950701e-20)
(0.89006821 -0.0048875042 -2.1314587e-20)
(-0.0057741244 -0.0060534669 6.2500121e-20)
(0.0043806284 -0.006573607 1.6565749e-20)
(0.015959336 -0.006989614 -3.691737e-20)
(0.02860567 -0.007230824 1.7812872e-20)
(0.042041382 -0.0073810388 0)
(0.056200024 -0.0074694235 0)
(0.071017439 -0.0074989539 -2.3829452e-20)
(0.086408811 -0.007477662 -1.6987277e-20)
(0.10229814 -0.0074153868 1.979952e-20)
(0.11862091 -0.0073193319 1.8672878e-20)
(0.13531771 -0.0071949983 1.0401774e-21)
(0.15233258 -0.0070472259 -1.0418194e-20)
(0.16961338 -0.0068802364 8.5730284e-21)
(0.18711143 -0.0066976116 1.8257582e-20)
(0.20478091 -0.0065024175 -5.4070461e-21)
(0.22257849 -0.0062973153 -1.0079652e-20)
(0.24046314 -0.0060846268 -4.2551476e-21)
(0.25839591 -0.0058663869 -4.2707978e-21)
(0.27633986 -0.0056443903 6.947802e-22)
(0.29425997 -0.0054202278 1.2114364e-21)
(0.3121231 -0.0051953148 2.5792549e-21)
(0.32989803 -0.004970912 6.4772483e-21)
(0.34755542 -0.0047481423 1.3962664e-22)
(0.36506793 -0.0045280028 -3.3439987e-21)
(0.38241019 -0.0043113745 1.2837409e-22)
(0.39955883 -0.0040990295 -5.5408326e-22)
(0.41649255 -0.0038916372 1.1883763e-21)
(0.43319209 -0.00368977 9.6682259e-22)
(0.44964028 -0.0034939083 -1.2908834e-21)
(0.46582196 -0.0033044461 -9.9383469e-23)
(0.48172399 -0.0031216959 -4.5623327e-23)
(0.49733521 -0.0029458952 -3.2835881e-22)
(0.51264638 -0.002777212 -4.1035408e-22)
(0.52765011 -0.0026157513 9.1881332e-23)
(0.54234081 -0.0024615624 -1.2687238e-22)
(0.55671461 -0.002314645 -1.9609681e-22)
(0.57076929 -0.0021749575 2.230441e-22)
(0.5845043 -0.0020424237 2.5243487e-22)
(0.59792055 -0.0019169431 -3.3624043e-23)
(0.61102088 -0.0017983945 -1.6377918e-22)
(0.62380882 -0.0016866655 1.5341382e-23)
(0.63629272 -0.001581608 -2.4260652e-23)
(0.64847375 -0.0014832532 7.9171349e-23)
(0.6603841 -0.0013912283 -1.7754204e-23)
(0.67197479 -0.0013067897 -1.3497733e-22)
(0.68345371 -0.0012267496 6.4754618e-24)
(0.69430478 -0.0011631616 6.5419546e-24)
(0.70615364 -0.0010838793 -5.3546802e-24)
(0.71456194 -0.0010967162 2.5726777e-23)
(0.73204218 -0.00092639697 3.7220822e-22)
(0.024432584 -0.017819263 -1.4011358e-20)
(0.033613518 -0.019397875 -6.6993593e-20)
(0.044698597 -0.020620354 -3.2645487e-20)
(0.056820918 -0.021307746 4.0627155e-20)
(0.069586375 -0.021739108 1.5419134e-20)
(0.083008892 -0.021999067 -1.9302192e-20)
(0.097056659 -0.022088568 5.2004899e-21)
(0.11164787 -0.022029732 2.6248461e-20)
(0.12671398 -0.021851847 -1.8701713e-22)
(0.14220009 -0.021575602 -7.9768496e-21)
(0.15805391 -0.021216516 -1.2904608e-20)
(0.17422488 -0.020788457 -8.8763525e-21)
(0.1906654 -0.020303618 1.7927752e-20)
(0.2073306 -0.019772352 9.6011489e-21)
(0.22417776 -0.019203546 -1.6216234e-20)
(0.24116605 -0.018604947 -6.0067539e-21)
(0.25825646 -0.017983346 3.104126e-21)
(0.27541171 -0.017344716 8.1253606e-21)
(0.29259617 -0.016694347 6.9290754e-21)
(0.30977589 -0.016036944 -7.0690931e-21)
(0.32691857 -0.015376707 -3.3771645e-21)
(0.34399365 -0.01471739 1.568538e-21)
(0.36097232 -0.014062345 6.6239622e-22)
(0.37782759 -0.013414556 1.2437406e-21)
(0.39453435 -0.012776665 2.3832539e-22)
(0.41106939 -0.012150995 -3.7313614e-22)
(0.42741147 -0.011539563 -7.4772031e-22)
(0.4435413 -0.010944099 1.0694555e-21)
(0.4594416 -0.010366059 8.6937051e-22)
(0.47509704 -0.0098066441 -2.7233077e-22)
(0.49049425 -0.0092668097 5.9570714e-22)
(0.50562177 -0.0087472884 -2.2305849e-22)
(0.52047001 -0.0082486052 -4.1234474e-22)
(0.53503118 -0.0077710975 -6.2111018e-22)
(0.54929924 -0.0073149344 4.0625152e-22)
(0.56326985 -0.0068801384 -1.1257187e-22)
(0.57694031 -0.0064666066 2.2158767e-22)
(0.5903095 -0.0060741331 -4.6617149e-22)
(0.60337781 -0.0057024383 4.4863712e-22)
(0.61614749 -0.0053511803 6.0200431e-23)
(0.6286215 -0.0050200432 -5.730888e-23)
(0.64080758 -0.0047086028 2.151053e-22)
(0.65270635 -0.0044169712 2.8884948e-22)
(0.66434919 -0.00414405 2.1924506e-22)
(0.67568718 -0.0038936122 2.3439906e-22)
(0.6869253 -0.0036561479 -1.7329986e-23)
(0.69755356 -0.0034676387 1.1989767e-22)
(0.70917534 -0.0032322475 1.0543879e-22)
(0.71741484 -0.0032709613 -2.0452132e-22)
(0.73459287 -0.0027651845 -8.4990712e-24)
(0.083114282 -0.028520154 1.0311143e-20)
(0.090369722 -0.031167166 3.8793816e-21)
(0.10036867 -0.033141906 -1.3848794e-20)
(0.11141236 -0.034197931 -1.6580238e-21)
(0.12282151 -0.034873133 1.6111558e-20)
(0.13476658 -0.035302428 -1.5612668e-20)
(0.14728699 -0.0354655 -3.1486051e-20)
(0.16030308 -0.03539274 1.5384915e-20)
(0.17375747 -0.035132124 1.9115236e-20)
(0.18761303 -0.034715695 -1.2121498e-20)
(0.20183048 -0.034166488 1.0454182e-21)
(0.2163685 -0.033505651 8.408405e-21)
(0.23118735 -0.032752142 -1.5773027e-20)
(0.24624877 -0.031922123 3.8085844e-21)
(0.26151531 -0.031029533 7.8087632e-21)
(0.2769504 -0.03008663 -5.3729767e-22)
(0.29251843 -0.029104249 -8.4984864e-23)
(0.30818484 -0.028092003 -7.6426163e-21)
(0.3239162 -0.027058462 4.4466503e-21)
(0.33968028 -0.026011302 8.6662571e-21)
(0.35544613 -0.024957418 -3.8975226e-21)
(0.37118422 -0.023903007 -2.169782e-21)
(0.38686654 -0.02285363 8.8038198e-22)
(0.40246663 -0.021814259 -1.7763341e-21)
(0.41795975 -0.020789318 1.3081715e-21)
(0.43332286 -0.019782709 6.9207447e-22)
(0.44853474 -0.018797838 1.8077673e-21)
(0.463576 -0.01783764 -2.1789475e-21)
(0.47842908 -0.016904599 2.471679e-21)
(0.49307829 -0.016000775 5.9204348e-22)
(0.50750977 -0.015127829 6.2059106e-22)
(0.52171148 -0.014287046 3.0062439e-22)
(0.53567315 -0.013479373 1.0212087e-21)
(0.54938625 -0.012705441 -1.5640123e-21)
(0.5628439 -0.011965603 4.3558186e-22)
(0.57604088 -0.011259968 2.2407019e-22)
(0.58897353 -0.010588436 -8.0466404e-23)
(0.60163975 -0.0099507316 1.3050018e-23)
(0.6140389 -0.0093464596 -4.0194484e-22)
(0.62617217 -0.0087751169 2.2473986e-22)
(0.63804145 -0.0082362426 -2.9618634e-23)
(0.64965335 -0.0077291923 5.4744278e-22)
(0.66100749 -0.00725421 -2.53646e-22)
(0.67213371 -0.0068095274 3.7163644e-23)
(0.68298319 -0.0064014354 7.5567457e-23)
(0.6937555 -0.0060142745 -9.4083591e-23)
(0.7039522 -0.0057073726 -1.5821076e-22)
(0.71513398 -0.0053231322 5.1725715e-22)
(0.72304584 -0.0053880619 1.8177129e-22)
(0.73963772 -0.0045624294 -8.5322483e-22)
(0.16734737 -0.037411245 1.8324212e-21)
(0.17175651 -0.041110698 -1.1822231e-20)
(0.17993959 -0.043757741 6.5911193e-21)
(0.18928985 -0.045092438 -1.41106e-20)
(0.19864131 -0.045978578 -2.084899e-21)
(0.20836733 -0.046590866 1.0012738e-20)
(0.21862677 -0.04686472 -1.0965397e-20)
(0.22933896 -0.046829474 1.1012696e-21)
(0.24045457 -0.046549216 1.3391318e-20)
(0.25195945 -0.046064691 3.8457008e-21)
(0.26383122 -0.045403248 -6.3846773e-21)
(0.2760395 -0.044590682 -3.2373118e-21)
(0.28855358 -0.043650902 -5.5257146e-21)
(0.30134295 -0.042604579 -6.8020094e-21)
(0.3143763 -0.041469696 2.7604917e-21)
(0.32762181 -0.040262259 2.5901949e-22)
(0.34104766 -0.038996612 1.5809507e-21)
(0.35462227 -0.037685636 -3.381921e-21)
(0.36831452 -0.03634094 -4.5974758e-21)
(0.38209396 -0.034973028 2.528223e-21)
(0.39593101 -0.033591413 3.5281948e-21)
(0.40979713 -0.032204711 -1.8512817e-21)
(0.42366499 -0.030820705 1.68945e-21)
(0.4375086 -0.029446401 -5.1703688e-22)
(0.45130342 -0.028088061 -4.3213037e-21)
(0.46502643 -0.026751244 -3.0617073e-21)
(0.47865625 -0.025440827 -2.9895578e-22)
(0.49217317 -0.02416104 3.0588401e-22)
(0.50555916 -0.022915492 -2.2051858e-21)
(0.51879791 -0.021707201 -1.079482e-21)
(0.53187484 -0.020538629 2.1516808e-22)
(0.54477704 -0.01941172 -1.4032069e-21)
(0.55749329 -0.018327941 -6.6987073e-23)
(0.57001398 -0.017288319 -5.148635e-22)
(0.58233111 -0.016293493 -4.3738424e-22)
(0.59443822 -0.015343756 -6.9989519e-22)
(0.60633038 -0.01443911 -1.0685875e-21)
(0.61800414 -0.013579311 -9.8705289e-24)
(0.62945748 -0.012763938 -3.4739503e-24)
(0.64069016 -0.011992422 -6.2206638e-22)
(0.65170264 -0.011264244 -1.3120091e-23)
(0.66249998 -0.010578627 -4.2783603e-22)
(0.6730805 -0.0099360201 -6.3150129e-22)
(0.68347189 -0.009334078 4.9996525e-22)
(0.69362563 -0.0087815875 1.3630625e-23)
(0.70373354 -0.0082570619 2.4716602e-22)
(0.71331389 -0.0078421027 -1.8137773e-22)
(0.72386598 -0.0073208096 -3.5088689e-22)
(0.73130902 -0.0074121154 -1.4456542e-23)
(0.74705906 -0.0062921107 4.8684373e-22)
(0.27310182 -0.043693295 -2.3057243e-20)
(0.27375554 -0.04842045 5.0088802e-20)
(0.27924538 -0.051648789 1.0754563e-20)
(0.28619539 -0.053198352 -1.674046e-20)
(0.29278157 -0.054299222 -2.5250649e-21)
(0.29956583 -0.055142458 2.3550449e-21)
(0.30687381 -0.055602488 -2.1252833e-21)
(0.31462541 -0.055697287 -4.8825823e-21)
(0.32276806 -0.055500002 -4.1763192e-21)
(0.33130932 -0.055056759 -1.2651269e-20)
(0.34024525 -0.05439679 1.8981933e-20)
(0.34955563 -0.053547849 7.0474396e-21)
(0.35921738 -0.052536634 -1.7169804e-20)
(0.36920665 -0.051386942 9.9373169e-21)
(0.3794974 -0.050119871 7.9268193e-21)
(0.39006177 -0.048754487 -3.3935311e-22)
(0.40087087 -0.047308178 -2.7784493e-21)
(0.41189537 -0.045796814 -4.3126485e-21)
(0.42310578 -0.044234908 -1.6151002e-21)
(0.43447283 -0.042635739 -1.4272391e-21)
(0.44596772 -0.041011464 -3.3981784e-21)
(0.45756238 -0.039373186 0)
(0.46922971 -0.037731017 -1.5076877e-21)
(0.48094371 -0.036094116 3.9940632e-21)
(0.49267965 -0.034470725 5.7178051e-21)
(0.50441418 -0.032868201 -9.0582558e-22)
(0.5161254 -0.031293043 -3.3257624e-21)
(0.52779294 -0.029750924 3.5022383e-21)
(0.53939802 -0.028246724 2.3254881e-23)
(0.55092342 -0.026784567 3.8087637e-21)
(0.56235354 -0.025367863 -5.0502065e-22)
(0.57367437 -0.023999355 1.8094658e-21)
(0.58487347 -0.022681165 -9.1741663e-22)
(0.59593994 -0.021414856 4.2431302e-22)
(0.6068644 -0.020201481 -5.4832304e-22)
(0.61763894 -0.019041651 5.8669695e-22)
(0.62825712 -0.017935592 5.4459332e-22)
(0.63871393 -0.016883212 4.5783173e-22)
(0.64900573 -0.015884187 -1.1273229e-21)
(0.65913066 -0.014937991 8.0670884e-22)
(0.66908749 -0.01404416 -4.2339829e-22)
(0.67887955 -0.013201887 -1.3862366e-21)
(0.68850362 -0.012411918 1.7696138e-21)
(0.69798491 -0.011671446 -5.4551011e-23)
(0.70727538 -0.010991706 -2.014364e-22)
(0.71655724 -0.010345828 -6.9942907e-24)
(0.72537004 -0.0098361864 -2.0058053e-22)
(0.73513545 -0.0091933384 -6.0261539e-22)
(0.74199346 -0.0093109528 7.7870435e-22)
(0.75668588 -0.0079302731 -5.0506489e-23)
(0.39535322 -0.046413761 -1.9345532e-20)
(0.39139053 -0.052200851 1.3269799e-20)
(0.39321697 -0.055963209 3.8836562e-21)
(0.39698134 -0.057754965 -8.143258e-21)
(0.40013066 -0.059155089 1.2759566e-20)
(0.40332127 -0.060332325 8.2259663e-21)
(0.40706992 -0.061104353 -1.2902397e-20)
(0.41131408 -0.061474562 -6.3498521e-21)
(0.41598263 -0.061512332 1.323195e-20)
(0.42109273 -0.061262921 -1.6594859e-20)
(0.42665621 -0.060756204 -1.4521451e-20)
(0.43266094 -0.06002043 1.5329342e-20)
(0.43908789 -0.059083266 7.0239833e-21)
(0.44591662 -0.057970475 -5.2398489e-21)
(0.45312397 -0.056705701 -1.3270027e-21)
(0.460684 -0.055310771 -3.5830538e-21)
(0.46856903 -0.053805957 4.8035132e-21)
(0.47675044 -0.052210119 3.6886278e-21)
(0.48519907 -0.050540768 -3.1231955e-21)
(0.49388566 -0.048814133 3.1233084e-21)
(0.50278121 -0.047045221 2.9671823e-21)
(0.51185727 -0.045247862 -3.386936e-21)
(0.52108617 -0.04343474 3.6700716e-22)
(0.53044123 -0.041617419 -3.1856501e-21)
(0.53989694 -0.039806365 8.2023904e-21)
(0.54942904 -0.038010974 6.5483925e-21)
(0.55901467 -0.036239596 1.0568824e-21)
(0.56863239 -0.034499568 -1.843599e-21)
(0.57826226 -0.03279725 4.3058846e-21)
(0.58788586 -0.031138072 8.1180302e-21)
(0.5974863 -0.02952658 2.4054468e-21)
(0.6070482 -0.027966492 3.7333927e-21)
(0.61655771 -0.026460764 2.1511817e-21)
(0.62600244 -0.025011651 8.6100917e-22)
(0.63537147 -0.023620783 -2.4506361e-22)
(0.64465533 -0.02228923 3.1123042e-21)
(0.65384593 -0.021017589 7.0034777e-22)
(0.66293661 -0.019806057 3.2053387e-22)
(0.67192204 -0.018654536 5.7074315e-23)
(0.68079862 -0.01756267 1.2223608e-21)
(0.68956342 -0.016530167 4.2195653e-23)
(0.69821792 -0.015556305 5.8187523e-22)
(0.70675734 -0.014642216 -1.2661665e-22)
(0.71520421 -0.01378476 -4.0323602e-22)
(0.72351126 -0.012997552 -2.0117464e-22)
(0.73184966 -0.012248857 -5.5113449e-22)
(0.73978416 -0.011659998 2.3871571e-22)
(0.74864539 -0.010913715 -1.6238858e-22)
(0.75483259 -0.011057346 -4.4527771e-22)
(0.76829997 -0.009455659 2.8301049e-22)
(0.5279809 -0.044653266 3.4372137e-21)
(0.51876182 -0.051543786 -1.9358596e-20)
(0.5159928 -0.055849961 -2.5951821e-21)
(0.5157993 -0.058072894 5.7105105e-21)
(0.5149853 -0.059997358 3.6080591e-21)
(0.51411145 -0.061699588 6.208765e-22)
(0.51385372 -0.062971108 7.2186792e-21)
(0.51420967 -0.063816383 8.1745618e-21)
(0.51508688 -0.064290831 1.0118935e-20)
(0.51648959 -0.06443008 -1.188447e-20)
(0.51843501 -0.064262995 -2.2985593e-20)
(0.52091609 -0.063818406 -4.5320548e-21)
(0.52391414 -0.063124514 1.6845564e-20)
(0.52740792 -0.062208652 1.3429017e-20)
(0.53137382 -0.061097056 -5.7405221e-21)
(0.5357854 -0.059814604 8.851049e-22)
(0.54061415 -0.058384827 -4.2110735e-21)
(0.54583039 -0.056829971 3.1296041e-21)
(0.55140384 -0.055170974 -2.9351879e-22)
(0.55730402 -0.053427455 -1.9734524e-21)
(0.56350065 -0.051617705 8.5296937e-21)
(0.56996393 -0.049758692 -4.9898387e-22)
(0.57666482 -0.047866071 6.0954293e-22)
(0.58357523 -0.045954182 -4.5336496e-22)
(0.59066821 -0.044036064 -4.5218796e-21)
(0.59791806 -0.042123478 4.4130555e-21)
(0.60530042 -0.040226925 1.8417808e-21)
(0.61279237 -0.038355685 -3.4504509e-21)
(0.62037245 -0.03651786 -4.0792871e-21)