/*--------------------------------*- C++ -*----------------------------------*\
  =========                 |
  \\      /  F ield         | OpenFOAM: The Open Source CFD Toolbox
   \\    /   O peration     | Website:  https://openfoam.org
    \\  /    A nd           | Version:  6
     \\/     M anipulation  |
\*---------------------------------------------------------------------------*/
FoamFile
{
    version     2.0;
    format      ascii;
    class       volScalarField;
    location    "350";
    object      p;
}
// * * * * * * * * * * * * * * * * * * * * * * * * * * * * * * * * * * * * * //

dimensions      [0 2 -2 0 0 0 0];

internalField   nonuniform List<scalar> 
9200
(
-0.37794898
-0.36660249
-0.35650882
-0.34755954
-0.33881984
-0.33030361
-0.32208913
-0.31414388
-0.30640057
-0.29878724
-0.29123096
-0.28366267
-0.27602422
-0.26827562
-0.2604056
-0.25244946
-0.24448354
-0.23659564
-0.22981069
-0.2284107
-0.39580968
-0.38201202
-0.36997472
-0.35950564
-0.34939392
-0.33962101
-0.33025566
-0.32123461
-0.31245836
-0.30382856
-0.29525203
-0.28664657
-0.27794849
-0.26911859
-0.26014779
-0.25106106
-0.24188823
-0.23262901
-0.22396637
-0.21806625
-0.41408736
-0.39781569
-0.38388068
-0.37196225
-0.36053382
-0.34952622
-0.33898693
-0.32881423
-0.31887445
-0.30904672
-0.29922676
-0.28933248
-0.27931082
-0.26914084
-0.25883354
-0.24842761
-0.2379618
-0.22744507
-0.21727669
-0.20857174
-0.43234795
-0.41362139
-0.39785404
-0.38454786
-0.37182297
-0.35954323
-0.34772699
-0.33623355
-0.32490301
-0.31360734
-0.30225191
-0.2907785
-0.2791684
-0.26744027
-0.2556434
-0.24384761
-0.23211943
-0.22049775
-0.20925004
-0.19911741
-0.44996153
-0.4288831
-0.41140015
-0.39678332
-0.38277166
-0.3691513
-0.3559113
-0.34288268
-0.3298998
-0.3168546
-0.30369178
-0.29040517
-0.27703355
-0.26365076
-0.25035227
-0.23724102
-0.22440705
-0.21190891
-0.19993476
-0.18899206
-0.46610362
-0.44288185
-0.42385893
-0.40802087
-0.39271589
-0.37765242
-0.3628027
-0.34799507
-0.33309232
-0.31804267
-0.30286308
-0.2876241
-0.27243565
-0.25742888
-0.24273794
-0.22848484
-0.21476424
-0.20163203
-0.18921416
-0.17784743
-0.47976907
-0.4547313
-0.43440572
-0.41744653
-0.40082794
-0.38419653
-0.36753551
-0.35071128
-0.33365953
-0.31642418
-0.29912261
-0.28191594
-0.26498435
-0.24850348
-0.23262578
-0.21746912
-0.20310919
-0.18957712
-0.17693975
-0.16539826
-0.48979407
-0.4634013
-0.44208375
-0.424127
-0.40618098
-0.38786431
-0.36921386
-0.35018629
-0.33083864
-0.31134549
-0.29194192
-0.27287926
-0.2543933
-0.2366809
-0.21988682
-0.20410088
-0.18936025
-0.17565679
-0.16299941
-0.15147535
-0.49483643
-0.46761661
-0.44560703
-0.42672649
-0.40739905
-0.38727745
-0.36651218
-0.34520744
-0.32358118
-0.30195415
-0.28067261
-0.26005542
-0.24036325
-0.22178284
-0.20442499
-0.18833281
-0.17349421
-0.15985755
-0.14737774
-0.13604452
-0.4935457
-0.46596033
-0.44342798
-0.4235797
-0.40276038
-0.38074052
-0.35784964
-0.3343853
-0.31074012
-0.28736417
-0.26467762
-0.24302143
-0.22263835
-0.20367203
-0.18617889
-0.17014676
-0.15551464
-0.14219307
-0.13009021
-0.11911094
-0.26506699
-0.26974127
-0.27224968
-0.27300082
-0.2727867
-0.27179419
-0.27010475
-0.26780592
-0.26496989
-0.26165141
-0.25789452
-0.25373672
-0.24921113
-0.24434783
-0.23917506
-0.23372173
-0.22801872
-0.22208653
-0.21592422
-0.2096173
-0.26779963
-0.27205866
-0.27426032
-0.27479279
-0.2743956
-0.27324687
-0.27142616
-0.2690173
-0.26608895
-0.26269298
-0.25887104
-0.25465852
-0.25008665
-0.24518349
-0.2399747
-0.23448817
-0.22876222
-0.22281575
-0.21654146
-0.20991342
-0.2731291
-0.27657607
-0.27817975
-0.27828449
-0.27752838
-0.2760741
-0.27399769
-0.27137573
-0.26826992
-0.26472654
-0.26078238
-0.25646863
-0.25181274
-0.24683893
-0.24156802
-0.23602502
-0.23025969
-0.22428977
-0.21781617
-0.21058113
-0.28081552
-0.28309998
-0.28383812
-0.28331414
-0.28202512
-0.28011417
-0.27765337
-0.27470942
-0.27133437
-0.26756665
-0.26343622
-0.25896814
-0.25418434
-0.24910333
-0.24373913
-0.23811158
-0.23228239
-0.22627392
-0.21954069
-0.21145514
-0.29055661
-0.29138735
-0.29102393
-0.28968269
-0.28769179
-0.28517358
-0.28219693
-0.27881728
-0.27507526
-0.27100004
-0.26661334
-0.26193196
-0.25697029
-0.25173992
-0.24624676
-0.24050228
-0.23457616
-0.22850396
-0.22148102
-0.21236502
-0.30203857
-0.30118598
-0.29951976
-0.29718921
-0.29433678
-0.29106539
-0.28744297
-0.28351393
-0.27930691
-0.27483943
-0.2701224
-0.26516336
-0.2599679
-0.25453918
-0.24887396
-0.24297241
-0.23690424
-0.23072439
-0.22339708
-0.21314383
-0.31498248
-0.31227086
-0.3091349
-0.30566401
-0.30180626
-0.2976483
-0.29326098
-0.28867731
-0.28391124
-0.2789678
-0.27384641
-0.26854334
-0.26305357
-0.25737073
-0.25148248
-0.24537719
-0.23911737
-0.23278061
-0.22516315
-0.21378128
-0.32917231
-0.32446694
-0.31972748
-0.31499323
-0.31001359
-0.30486195
-0.29961239
-0.2942857
-0.28888109
-0.28338916
-0.27779497
-0.27208055
-0.26622724
-0.26021659
-0.25402661
-0.24763674
-0.24110673
-0.23456014
-0.22674446
-0.21446557
-0.34445502
-0.33764182
-0.33118711
-0.32509019
-0.31889442
-0.31265863
-0.306462
-0.30031261
-0.29419205
-0.28807331
-0.28192354
-0.27570628
-0.26938381
-0.26291737
-0.25626252
-0.24937139
-0.24226828
-0.2350594
-0.22648739
-0.21304989
-0.36073171
-0.35168776
-0.34340159
-0.33583741
-0.32831915
-0.32089082
-0.31363667
-0.30654974
-0.29959152
-0.29271572
-0.28587121
-0.27900482
-0.27206423
-0.264998
-0.25775029
-0.25025669
-0.24246006
-0.23415378
-0.22368701
-0.20801828
-0.20246659
-0.1935183
-0.18456506
-0.17567086
-0.16678201
-0.15794017
-0.14919888
-0.14059317
-0.13215233
-0.12390498
-0.1158769
-0.10809028
-0.10056427
-0.093315211
-0.086356703
-0.079699627
-0.073352275
-0.06732045
-0.061607564
-0.056214747
-0.051140971
-0.046383191
-0.041936492
-0.037794256
-0.033948343
-0.030389271
-0.027106413
-0.024088192
-0.021322275
-0.018795765
-0.016495385
-0.014407656
-0.012519061
-0.010816198
-0.0092859263
-0.0079154934
-0.0066926662
-0.0056058304
-0.004644169
-0.0037975855
-0.0030575239
-0.0024149804
-0.0018676847
-0.0013989947
-0.0010444928
-0.00069461491
-0.00068792284
-8.012686e-05
-0.0017060537
0.0024523269
-0.20347663
-0.19413108
-0.1850688
-0.17618893
-0.16728206
-0.15841004
-0.14964431
-0.14101634
-0.13255294
-0.12428325
-0.11623338
-0.10842538
-0.10087838
-0.0936088
-0.086630309
-0.079953846
-0.073587769
-0.067537941
-0.061807825
-0.056398594
-0.05130925
-0.046536771
-0.042076253
-0.03792108
-0.034063106
-0.030492834
-0.027199618
-0.024171852
-0.021397173
-0.018862648
-0.016554963
-0.014460598
-0.012565993
-0.010857704
-0.0093225477
-0.0079477283
-0.0067209704
-0.0056306185
-0.004665815
-0.0038164237
-0.0030738489
-0.0024290503
-0.0018797005
-0.0014091656
-0.0010527487
-0.00070153592
-0.00069132533
-8.5942865e-05
-0.0016914955
0.0024237395
-0.20559531
-0.19539914
-0.18611942
-0.17730824
-0.16837777
-0.15944507
-0.15063172
-0.14195974
-0.1334493
-0.12513172
-0.1170343
-0.10917899
-0.10158504
-0.09426921
-0.087245435
-0.080524883
-0.074116117
-0.068025189
-0.062255714
-0.056808985
-0.051684098
-0.046878089
-0.04238609
-0.038201495
-0.034316142
-0.030720503
-0.02740388
-0.024354605
-0.021560236
-0.019007756
-0.016683758
-0.014574623
-0.012666691
-0.010946415
-0.0094005091
-0.0080160752
-0.0067807382
-0.0056827448
-0.0047111432
-0.0038557054
-0.0031077452
-0.0024581373
-0.0019044363
-0.0014300022
-0.0010696104
-0.00071554789
-0.00069831543
-9.7432602e-05
-0.0016629188
0.0023671788
-0.20866392
-0.19709106
-0.18749037
-0.17887815
-0.16995828
-0.16094889
-0.15208142
-0.14336048
-0.13479101
-0.1264094
-0.11824667
-0.1103248
-0.10266335
-0.09527991
-0.088189134
-0.081402706
-0.074929651
-0.068776427
-0.062946983
-0.057442881
-0.05226342
-0.047405784
-0.042865201
-0.038635114
-0.034707369
-0.031072408
-0.027719474
-0.024636813
-0.021811875
-0.019231518
-0.016882195
-0.014750141
-0.012821539
-0.011082684
-0.0095201295
-0.0081208196
-0.0068722225
-0.0057624321
-0.0047803488
-0.0039156007
-0.0031593604
-0.002502369
-0.0019420016
-0.0014615985
-0.0010951583
-0.00073671387
-0.0007089921
-0.00011454815
-0.0016210713
0.002283869
-0.21245581
-0.19893631
-0.18891241
-0.18070098
-0.1718771
-0.16279369
-0.15388316
-0.14512961
-0.13650654
-0.12805756
-0.11982219
-0.11182357
-0.10408164
-0.096615485
-0.089441127
-0.082571287
-0.076015833
-0.069781962
-0.063874247
-0.058294746
-0.053043155
-0.048116954
-0.043511585
-0.039220628
-0.035235995
-0.031548141
-0.028146267
-0.025018534
-0.022152275
-0.019534196
-0.01715058
-0.014987473
-0.013030856
-0.011266818
-0.0096816971
-0.0082622267
-0.0069956641
-0.0058698973
-0.0048736258
-0.0039962824
-0.0032288478
-0.0025618813
-0.0019925158
-0.0015040595
-0.0011294882
-0.0007651057
-0.00072350129
-0.00013718855
-0.0015670968
0.0021756954
-0.21662368
-0.20065443
-0.19011644
-0.18254356
-0.17396189
-0.16483609
-0.15590486
-0.14715311
-0.13850316
-0.13000019
-0.12169754
-0.11362283
-0.105797
-0.098240992
-0.090973083
-0.084007776
-0.077356357
-0.071027226
-0.065025983
-0.059355534
-0.054016248
-0.04900614
-0.04432105
-0.039954841
-0.035899607
-0.032145893
-0.028682914
-0.025498778
-0.02258071
-0.019915266
-0.017488537
-0.015286353
-0.013294459
-0.011498691
-0.009885131
-0.0084402483
-0.0071510398
-0.0060051357
-0.0049909841
-0.0040977716
-0.0033162374
-0.0026367108
-0.002056021
-0.0015574312
-0.0011726544
-0.00080076608
-0.00074199781
-0.00016521245
-0.0015024431
0.002045112
-0.22077
-0.20206384
-0.19089073
-0.18412821
-0.17601216
-0.16694912
-0.15803146
-0.1493188
-0.14068501
-0.13215945
-0.12380785
-0.1156677
-0.10776329
-0.10011791
-0.092752786
-0.085685177
-0.078928578
-0.072493209
-0.066386215
-0.060611792
-0.05517136
-0.050063767
-0.045285497
-0.040830895
-0.036692387
-0.032860724
-0.029325216
-0.026073975
-0.023094148
-0.020372149
-0.017893878
-0.015644929
-0.013610783
-0.01177699
-0.010129331
-0.0086539709
-0.0073375971
-0.0061675342
-0.0051319308
-0.0042196792
-0.0034212288
-0.0027266335
-0.0021323576
-0.0016216101
-0.0012246061
-0.00084367394
-0.00076461849
-0.00019846899
-0.0014287595
0.0018950083
-0.22463392
-0.20356017
-0.19145961
-0.18526748
-0.17781365
-0.1690454
-0.16021934
-0.15157048
-0.14299015
-0.1344797
-0.12610393
-0.11791297
-0.10993885
-0.10220841
-0.094746202
-0.087573008
-0.080705332
-0.074155834
-0.067933707
-0.062044875
-0.05649218
-0.051275617
-0.046392573
-0.041838085
-0.037605082
-0.033684654
-0.030066307
-0.026738228
-0.023687535
-0.020900528
-0.018362923
-0.016060074
-0.013977183
-0.012099488
-0.010412437
-0.0089018512
-0.0075540688
-0.0063560659
-0.0052956474
-0.0043613669
-0.0035433389
-0.0028312997
-0.0022212885
-0.0016964563
-0.001285289
-0.00089383164
-0.00079155255
-0.00023686642
-0.0013478461
0.0017286739
-0.22587325
-0.20538808
-0.19251862
-0.18589768
-0.17893126
-0.17074462
-0.16219503
-0.15367528
-0.14520196
-0.13676855
-0.1284227
-0.12022226
-0.11221038
-0.10441972
-0.096878792
-0.089612491
-0.082641181
-0.075980796
-0.069643309
-0.063637032
-0.057966836
-0.052634396
-0.047638472
-0.04297519
-0.038638321
-0.034619575
-0.03090888
-0.027494678
-0.024364195
-0.021503719
-0.018898849
-0.016534745
-0.014396346
-0.012468579
-0.010736549
-0.0091857083
-0.0078020147
-0.0065720569
-0.0054832537
-0.0045237749
-0.0036833528
-0.0029513599
-0.0023233489
-0.0017823984
-0.0013550594
-0.00095146206
-0.00082318727
-0.00028011356
-0.0012618609
0.0015503779
-0.21601261
-0.20463418
-0.19363635
-0.18554898
-0.17849321
-0.17108082
-0.16313746
-0.1549836
-0.14679816
-0.13860722
-0.13043847
-0.12234941
-0.11439553
-0.10661976
-0.099057941
-0.091741618
-0.08469746
-0.077946933
-0.071506736
-0.065389221
-0.05960269
-0.054151688
-0.049037336
-0.044257668
-0.039807969
-0.035681103
-0.031867855
-0.028357254
-0.025136892
-0.022193231
-0.01951189
-0.017077919
-0.014876046
-0.012890912
-0.011107276
-0.0095102027
-0.0080852384
-0.0068185445
-0.0056971074
-0.0047086618
-0.0038425064
-0.0030875943
-0.002438935
-0.0018794882
-0.0014337476
-0.0010160407
-0.00085933264
-0.0003265526
-0.0011733639
0.0013656227
-0.19387465
-0.1985818
-0.19330866
-0.18440443
-0.17690191
-0.16989422
-0.16239411
-0.15453709
-0.14658902
-0.13861309
-0.13062888
-0.12268926
-0.11485354
-0.10716904
-0.09967477
-0.092405217
-0.085390018
-0.078653432
-0.072214674
-0.066088362
-0.060284821
-0.054810386
-0.049667744
-0.044856284
-0.040372447
-0.036210081
-0.032360787
-0.028814262
-0.025558636
-0.022580791
-0.019866663
-0.017401527
-0.015170264
-0.013157598
-0.011348316
-0.0097274689
-0.0082805478
-0.00699363
-0.0058535899
-0.0048480347
-0.003966085
-0.0031965791
-0.0025340636
-0.001961935
-0.0015019271
-0.0010746795
-0.00089045867
-0.00037295294
-0.001082936
0.0011823117
-0.18332586
-0.18914686
-0.18567399
-0.17693538
-0.16973263
-0.16347668
-0.15677704
-0.1496339
-0.14234319
-0.13497994
-0.1275539
-0.12011364
-0.11272088
-0.10542667
-0.098273563
-0.091299881
-0.084539297
-0.078020076
-0.071765272
-0.065793141
-0.060117424
-0.054747631
-0.049689376
-0.044944728
-0.040512568
-0.036388948
-0.032567452
-0.029039547
-0.025794931
-0.022821868
-0.020107499
-0.017638145
-0.015399581
-0.013377293
-0.011556706
-0.0099233975
-0.0084632877
-0.0071627954
-0.0060090506
-0.0049898627
-0.0040944238
-0.0033117535
-0.0026359562
-0.0020514453
-0.0015762409
-0.0011399549
-0.00092403536
-0.00042746546
-0.00098207152
0.0009846764
-0.1745878
-0.17780933
-0.17553236
-0.16851179
-0.16215946
-0.15659741
-0.15066454
-0.14425145
-0.13762476
-0.13087961
-0.12402787
-0.11711193
-0.11019228
-0.10332181
-0.096545205
-0.089903141
-0.083432209
-0.077163892
-0.071124537
-0.065335683
-0.059814291
-0.054572974
-0.049620293
-0.044961083
-0.040596799
-0.036525864
-0.032744028
-0.029244723
-0.026019411
-0.023057927
-0.020348801
-0.01787957
-0.015637065
-0.013607674
-0.011777591
-0.010133035
-0.0086604549
-0.0073466978
-0.0061792209
-0.005146097
-0.0042366305
-0.0034400722
-0.0027500574
-0.0021521467
-0.0016602758
-0.0012139389
-0.000963054
-0.00048885923
-0.00087372087
0.00076820381
-0.16490979
-0.16552257
-0.16369119
-0.1587467
-0.1536243
-0.14880488
-0.14366313
-0.13806174
-0.1321781
-0.12611303
-0.11989421
-0.11356207
-0.10717374
-0.10078274
-0.094435608
-0.088175008
-0.082040027
-0.076065111
-0.070279803
-0.064708921
-0.059372728
-0.054287094
-0.049463727
-0.044910467
-0.040631601
-0.036628191
-0.032898423
-0.029437958
-0.026240275
-0.023297023
-0.020598345
-0.018133199
-0.015889655
-0.013855175
-0.01201687
-0.010361729
-0.0088768417
-0.0075495788
-0.0063678046
-0.0053199197
-0.0043953913
-0.0035837364
-0.0028781423
-0.0022653198
-0.0017550991
-0.0012968351
-0.0010087538
-0.00055461223
-0.00076544266
0.00054295353
-0.1543407
-0.15307357
-0.15126423
-0.14803461
-0.14420544
-0.14019087
-0.13584614
-0.13108871
-0.12600203
-0.12066915
-0.11513321
-0.10943723
-0.10363419
-0.09777649
-0.091911568
-0.086083372
-0.080332726
-0.074696476
-0.069206993
-0.063892167
-0.058775474
-0.053876056
-0.049208879
-0.044784957
-0.040611624
-0.03669283
-0.033029464
-0.029619685
-0.026459265
-0.023541924
-0.020859671
-0.018403118
-0.016161792
-0.014124423
-0.01227921
-0.010614072
-0.0091168727
-0.0077756211
-0.0065786862
-0.0055148748
-0.0045738829
-0.0037455303
-0.0030226109
-0.0023929286
-0.0018623851
-0.0013896785
-0.0010626343
-0.00062409514
-0.0006632748
0.00031703007
-0.14255416
-0.14049523
-0.13880045
-0.13684516
-0.13418684
-0.13100827
-0.12745066
-0.12351787
-0.11923199
-0.11464886
-0.10981939
-0.10478828
-0.099603937
-0.094316401
-0.088972946
-0.083617744
-0.078292259
-0.073034741
-0.06787963
-0.062857315
-0.057994064
-0.053312013
-0.048829229
-0.044559853
-0.040514305
-0.036699523
-0.033119249
-0.029774326
-0.026663023
-0.023781354
-0.021123411
-0.01868168
-0.016447353
-0.014410624
-0.012560965
-0.010887387
-0.0093786766
-0.0080236113
-0.0068111772
-0.00573068
-0.0047721262
-0.0039256833
-0.0031838357
-0.0025353898
-0.0019826497
-0.0014927853
-0.0011256776
-0.00069686667
-0.0005732097
9.9085956e-05
-0.12986011
-0.12793039
-0.12658371
-0.12554053
-0.12384584
-0.12147692
-0.11867962
-0.11552548
-0.11201135
-0.10816678
-0.10404171
-0.09968253
-0.095132188
-0.090435604
-0.085638692
-0.080785093
-0.075915918
-0.071069682
-0.066281884
-0.061584596
-0.057006225
-0.052571383
-0.048300858
-0.044211661
-0.040317143
-0.036627171
-0.033148352
-0.029884287
-0.026835852
-0.024001503
-0.021377582
-0.018958627
-0.016737678
-0.014706572
-0.012856229
-0.011176915
-0.0096584904
-0.0082906378
-0.0070630819
-0.0059657298
-0.0049889936
-0.0041234409
-0.0033613559
-0.0026924358
-0.0021158481
-0.0016060832
-0.0011985591
-0.00077251142
-0.00050114761
-0.00010156891
-0.11697437
-0.11562485
-0.11476684
-0.11437946
-0.11344033
-0.11180663
-0.10972011
-0.10728313
-0.10448898
-0.10134947
-0.097906707
-0.094205016
-0.090284237
-0.086183677
-0.081944409
-0.077608345
-0.073215618
-0.068804072
-0.064409188
-0.060063747
-0.055797472
-0.051636761
-0.047604557
-0.043720295
-0.039999932
-0.036456041
-0.033097958
-0.029931982
-0.026961605
-0.02418778
-0.021609192
-0.019222549
-0.01702288
-0.015003814
-0.013157871
-0.011476721
-0.0099514459
-0.008572767
-0.0073312729
-0.0062175806
-0.0052226112
-0.0043373937
-0.0035541405
-0.0028633236
-0.0022615257
-0.0017292444
-0.0012816539
-0.00085081937
-0.00045210861
-0.00027608478
-0.10444011
-0.1037571
-0.10341496
-0.1035216
-0.10317052
-0.10217411
-0.10072918
-0.098939416
-0.09680136
-0.094317321
-0.091519624
-0.088447245
-0.085135526
-0.081619431
-0.077935453
-0.074121132
-0.070214192
-0.066251108
-0.062266506
-0.058292929
-0.054360515
-0.050496661
-0.046725781
-0.04306916
-0.03954489
-0.03616788
-0.032949928
-0.029899844
-0.02702363
-0.024324684
-0.021804043
-0.019460638
-0.01729156
-0.015292338
-0.013457204
-0.011779364
-0.010251244
-0.0088647319
-0.0076113996
-0.0064826833
-0.0054701205
-0.0045652702
-0.0037604129
-0.003046693
-0.0024187036
-0.0018616101
-0.0013749232
-0.00093179453
-0.00042945599
-0.00041731912
-0.092542885
-0.092445916
-0.092572175
-0.093066453
-0.093176715
-0.092715166
-0.091830873
-0.090613787
-0.089062728
-0.087175247
-0.084974586
-0.082492698
-0.079759658
-0.076805336
-0.073661765
-0.070362358
-0.066940881
-0.063431136
-0.059866135
-0.056277413
-0.052694686
-0.049145539
-0.045655126
-0.042245934
-0.038937633
-0.035746998
-0.03268791
-0.029771401
-0.027005763
-0.024396702
-0.021947525
-0.019659351
-0.017531354
-0.015561004
-0.013744323
-0.012076137
-0.010550322
-0.0091600348
-0.0078979416
-0.0067563988
-0.005727666
-0.004803906
-0.0039776104
-0.0032405204
-0.0025858327
-0.0020021384
-0.001477835
-0.0010155483
-0.00043431589
-0.00052096493
-0.081422989
-0.08178201
-0.082290692
-0.083087562
-0.083558662
-0.083534218
-0.083125228
-0.082403801
-0.08136834
-0.080013478
-0.078354811
-0.07641693
-0.074224143
-0.07180105
-0.069174579
-0.066373763
-0.063428511
-0.060369019
-0.057225604
-0.054028043
-0.050804917
-0.047583253
-0.044388215
-0.041242822
-0.038167716
-0.035181017
-0.032298232
-0.029532242
-0.026893336
-0.0243893
-0.022025548
-0.019805289
-0.017729723
-0.015798251
-0.014008708
-0.012357587
-0.010840281
-0.0094513002
-0.0081844896
-0.0070332177
-0.0059905628
-0.0050493669
-0.0042024726
-0.0034421756
-0.0027608309
-0.0021493987
-0.0015893365
-0.0011021443
-0.00046528653
-0.00058638564
-0.071140894
-0.071827863
-0.072622916
-0.073644825
-0.074391093
-0.07471378
-0.074695761
-0.074392559
-0.073800486
-0.072911757
-0.071735642
-0.070289806
-0.068592689
-0.066663572
-0.064524196
-0.062198726
-0.059712876
-0.057093163
-0.054366564
-0.051560238
-0.048700941
-0.045814478
-0.042925343
-0.040056426
-0.037228729
-0.034461152
-0.031770338
-0.029170584
-0.026673818
-0.024289612
-0.022025263
-0.019885901
-0.017874636
-0.015992736
-0.014239815
-0.012614045
-0.011112363
-0.009730682
-0.0084640938
-0.0073070509
-0.0062535352
-0.0052971415
-0.0044311934
-0.0036485339
-0.0029411647
-0.0023015955
-0.0017078672
-0.0011914317
-0.00051854086
-0.00061690654
-0.061708554
-0.06261628
-0.063609026
-0.064784963
-0.065730968
-0.066319588
-0.066612835
-0.066652495
-0.066432426
-0.065942699
-0.065187359
-0.064177939
-0.062927308
-0.061449578
-0.059761403
-0.057882032
-0.05583264
-0.053635749
-0.051314806
-0.048893842
-0.046397099
-0.043848533
-0.041271357
-0.038687707
-0.036118337
-0.033582358
-0.031097026
-0.028677594
-0.026337214
-0.024086907
-0.021935565
-0.019890014
-0.017955109
-0.01613386
-0.01442759
-0.012836107
-0.011357888
-0.0099902683
-0.0087296245
-0.0075715471
-0.006510991
-0.0055423717
-0.0046596113
-0.0038561238
-0.0031239636
-0.0024566173
-0.0018314169
-0.0012829132
-0.00058836348
-0.00061937356
-0.053111183
-0.054155516
-0.055271447
-0.056539454
-0.057619509
-0.058402338
-0.058934143
-0.059245819
-0.059329181
-0.059172606
-0.058775926
-0.058145479
-0.057289152
-0.056216273
-0.054938693
-0.053470904
-0.051829533
-0.050032891
-0.048100637
-0.046053428
-0.043912553
-0.041699556
-0.039435808
-0.037142122
-0.034838431
-0.032543496
-0.030274654
-0.028047622
-0.025876341
-0.023772887
-0.021747422
-0.019808191
-0.017961574
-0.016212157
-0.014562849
-0.013015015
-0.011568628
-0.010222431
-0.0089740989
-0.0078203921
-0.0067572902
-0.0057800897
-0.004883413
-0.0040612924
-0.0033061537
-0.002612112
-0.0019576324
-0.0013756889
-0.000668053
-0.00060296586
-0.045317988
-0.046434641
-0.047614518
-0.048923585
-0.050082442
-0.05099789
-0.05170407
-0.052223436
-0.052546453
-0.05266042
-0.052561942
-0.052253155
-0.051737734
-0.051020802
-0.050109877
-0.049015034
-0.04774855
-0.046324569
-0.044758841
-0.043068457
-0.041271506
-0.039386734
-0.037433196
-0.035429884
-0.033395386
-0.031347583
-0.029303375
-0.027278443
-0.025287057
-0.023341929
-0.021454118
-0.019632976
-0.017886137
-0.016219551
-0.014637546
-0.013142922
-0.011737066
-0.010420084
-0.0091909303
-0.0080475456
-0.0069869672
-0.0060054209
-0.005098315
-0.0042603608
-0.0034845899
-0.0027655784
-0.0020839617
-0.0014684926
-0.00075100341
-0.00057748394
-0.038287581
-0.039428756
-0.040627474
-0.041937845
-0.043130949
-0.044127839
-0.044953554
-0.045624137
-0.046129412
-0.046456254
-0.046598997
-0.046556564
-0.04632926
-0.045918719
-0.045328733
-0.044565456
-0.043637189
-0.042554137
-0.041328241
-0.039972977
-0.0385031
-0.036934341
-0.035283107
-0.033566162
-0.031800308
-0.030002073
-0.028187429
-0.02637154
-0.024568537
-0.022791336
-0.021051496
-0.019359117
-0.017722784
-0.016149551
-0.014644955
-0.013213069
-0.011856573
-0.010576851
-0.0093740938
-0.0082474031
-0.0071948861
-0.0062137317
-0.0053002002
-0.004449747
-0.0036561676
-0.0029144621
-0.0022078184
-0.0015598058
-0.00083169656
-0.00055154366
-0.031972532
-0.033103936
-0.034288551
-0.03557078
-0.036763707
-0.037800982
-0.038700875
-0.039474675
-0.040112177
-0.040600419
-0.040932332
-0.041104555
-0.041114872
-0.040962188
-0.040647258
-0.040172929
-0.039544022
-0.038767189
-0.037850822
-0.036804922
-0.035640923
-0.034371457
-0.033010105
-0.03157113
-0.030069199
-0.028519093
-0.026935434
-0.025332423
-0.023723606
-0.022121668
-0.020538256
-0.018983842
-0.017467625
-0.015997466
-0.014579861
-0.01321995
-0.011921548
-0.010687197
-0.009518242
-0.0084149019
-0.0073763397
-0.0064007221
-0.005485206
-0.0046260489
-0.0038179065
-0.0030562444
-0.0023267352
-0.0016480103
-0.00090633929
-0.0005311857
-0.026322787
-0.027420957
-0.028568569
-0.029802054
-0.030969414
-0.032015344
-0.032953146
-0.033790658
-0.034518114
-0.035123193
-0.035598151
-0.035938163
-0.036139277
-0.036198416
-0.036114009
-0.035886254
-0.035517076
-0.035010069
-0.034370463
-0.033605069
-0.032722169
-0.031731355
-0.030643345
-0.029469766
-0.028222925
-0.026915569
-0.025560621
-0.024170942
-0.022759091
-0.02133711
-0.019916335
-0.018507224
-0.017119232
-0.015760706
-0.014438819
-0.013159536
-0.011927605
-0.010746575
-0.0096188278
-0.0085456209
-0.0075271315
-0.0065624943
-0.0056497828
-0.004786099
-0.0039670073
-0.0031885163
-0.0024384772
-0.001731533
-0.00097298789
-0.00051928916
-0.02128797
-0.022337954
-0.023433745
-0.024605184
-0.025729302
-0.026760402
-0.027708158
-0.028577943
-0.029360755
-0.030045252
-0.030623584
-0.031090142
-0.031439921
-0.031668534
-0.031772763
-0.031750809
-0.031602317
-0.031328373
-0.030931524
-0.03041578
-0.029786564
-0.029050623
-0.028215904
-0.027291401
-0.026286971
-0.025213145
-0.024080912
-0.022901493
-0.021686126
-0.02044585
-0.019191316
-0.0179326
-0.016679054
-0.015439177
-0.014220515
-0.013029589
-0.011871851
-0.010751662
-0.0096722931
-0.00863593
-0.0076436912
-0.0066956408
-0.0057907615
-0.0049270197
-0.0041009016
-0.0033090426
-0.0025411034
-0.001808947
-0.001031192
-0.0005158807
-0.016819267
-0.017812648
-0.018848134
-0.019950067
-0.021019633
-0.022019439
-0.022956501
-0.023834449
-0.024645232
-0.025378689
-0.026027283
-0.026585142
-0.027046759
-0.027407015
-0.027661636
-0.027807438
-0.027842379
-0.027765599
-0.027577477
-0.027279678
-0.026875148
-0.026368088
-0.025763885
-0.025069015
-0.024290925
-0.023437878
-0.02251879
-0.02154305
-0.020520322
-0.019460354
-0.018372788
-0.017266985
-0.016151858
-0.015035728
-0.013926203
-0.012830076
-0.011753249
-0.010700681
-0.0096763476
-0.0086832233
-0.007723263
-0.0067973926
-0.0059054674
-0.0050463118
-0.0042173215
-0.0034158299
-0.0026329869
-0.0018790226
-0.0010813716
-0.00051909061
-0.012870484
-0.013803759
-0.01477532
-0.015804857
-0.016813689
-0.017771566
-0.018683534
-0.019551982
-0.02036989
-0.02112837
-0.021820462
-0.022440407
-0.022982619
-0.023441696
-0.023812806
-0.024091902
-0.024275794
-0.024362208
-0.02434987
-0.024238573
-0.02402922
-0.023723831
-0.023325531
-0.022838501
-0.022267913
-0.021619825
-0.020901065
-0.020119094
-0.019281848
-0.018397574
-0.01747466
-0.016521468
-0.015546176
-0.014556625
-0.013560186
-0.01256364
-0.011573077
-0.010593816
-0.0096303406
-0.0086862419
-0.0077641804
-0.0068658468
-0.0059919039
-0.0051420006
-0.0043144108
-0.0035072144
-0.0027128237
-0.0019407485
-0.0011242116
-0.00052629932
-0.0093996082
-0.010272813
-0.011180402
-0.012138068
-0.013083948
-0.013993907
-0.014871509
-0.015718243
-0.016528109
-0.017293493
-0.018008165
-0.018666722
-0.019263788
-0.019794013
-0.020252391
-0.020634438
-0.020936269
-0.021154669
-0.021287182
-0.021332195
-0.021289002
-0.021157846
-0.020939937
-0.020637456
-0.02025352
-0.019792138
-0.019258135
-0.018657053
-0.017995043
-0.017278735
-0.016515094
-0.015711276
-0.014874483
-0.014011817
-0.013130143
-0.012235963
-0.0113353
-0.010433597
-0.0095356261
-0.0086454142
-0.0077661723
-0.0069002348
-0.0060489814
-0.0052128263
-0.0043908744
-0.0035819739
-0.0027796604
-0.0019933521
-0.0011602853
-0.00053504973
-0.0063686385
-0.0071844369
-0.0080307066
-0.0089196716
-0.0098035311
-0.010663365
-0.011501589
-0.012319015
-0.013110602
-0.013869945
-0.014591594
-0.015270644
-0.015902106
-0.016480911
-0.017002148
-0.01746122
-0.017853909
-0.018176449
-0.018425611
-0.018598796
-0.018694101
-0.018710391
-0.018647334
-0.018505436
-0.018286047
-0.01799135
-0.017624328
-0.017188712
-0.016688902
-0.016129886
-0.015517128
-0.014856449
-0.014153907
-0.013415664
-0.012647861
-0.011856489
-0.01104727
-0.010225544
-0.0093961641
-0.0085633994
-0.0077308458
-0.0069013424
-0.0060768747
-0.0052585407
-0.0044462134
-0.0036395029
-0.0028329852
-0.0020363634
-0.0011899679
-0.00054352876
-0.003745365
-0.0045079635
-0.005297238
-0.0061223433
-0.0069472351
-0.0077574263
-0.008554422
-0.009338504
-0.010105488
-0.010850068
-0.011567568
-0.012253632
-0.012903753
-0.013513268
-0.014077543
-0.014592088
-0.01505262
-0.015455123
-0.015795929
-0.016071802
-0.016280013
-0.016418412
-0.016485484
-0.016480399
-0.016403045
-0.01625405
-0.01603478
-0.01574732
-0.015394442
-0.014979549
-0.014506607
-0.013980059
-0.013404724
-0.012785696
-0.012128231
-0.011437628
-0.010719112
-0.0099777239
-0.0092182008
-0.0084448716
-0.0076615496
-0.0068714319
-0.0060769857
-0.0052798946
-0.0044807222
-0.0036798066
-0.002872704
-0.0020695918
-0.0012134595
-0.00055060978
-0.0015041176
-0.0022193189
-0.0029575508
-0.0037253428
-0.0044964139
-0.0052599906
-0.006016839
-0.0067668094
-0.0075064551
-0.0082314368
-0.0089377893
-0.0096217022
-0.010279174
-0.010906005
-0.01149793
-0.012050706
-0.012560162
-0.013022249
-0.013433111
-0.013789156
-0.014087131
-0.01432419
-0.014497959
-0.014606594
-0.014648834
-0.014624037
-0.014532208
-0.014374013
-0.01415077
-0.013864431
-0.013517547
-0.013113215
-0.012655011
-0.012146909
-0.011593192
-0.010998349
-0.010366974
-0.0097036514
-0.0090128451
-0.0082987826
-0.0075653406
-0.0068159314
-0.0060533765
-0.005279836
-0.0044964727
-0.0037042935
-0.0028997699
-0.0020936162
-0.0012312669
-0.00055592009
0.00037921003
-0.0002944148
-0.0009878135
-0.0017051388
-0.0024281639
-0.0031492231
-0.0038684815
-0.0045854233
-0.005297214
-0.0060003345
-0.006691446
-0.0073672385
-0.0080241915
-0.0086585679
-0.0092665024
-0.0098440645
-0.010387296
-0.010892255
-0.011355065
-0.011771986
-0.012139471
-0.012454234
-0.012713314
-0.012914136
-0.013054573
-0.013132993
-0.013148308
-0.013100002
-0.012988158
-0.012813458
-0.012577184
-0.012281192
-0.011927873
-0.0115201
-0.011061164
-0.010554698
-0.010004579
-0.0094148368
-0.0087895427
-0.008132696
-0.0074481059
-0.0067392709
-0.0060092439
-0.0052605494
-0.0044948487
-0.0037137367
-0.0029145185
-0.0021084272
-0.0012432062
-0.00055896333
0.0019018015
0.0012619552
0.00060537158
-7.0351783e-05
-0.00075340561
-0.0014385685
-0.0021255096
-0.0028134159
-0.0034999432
-0.0041822368
-0.0048574757
-0.0055227766
-0.006175041
-0.0068109485
-0.0074270136
-0.0080196264
-0.0085850813
-0.0091196088
-0.0096194197
-0.010080754
-0.010499939
-0.010873439
-0.011197926
-0.011470331
-0.011687914
-0.011848314
-0.01194961
-0.011990365
-0.011969666
-0.011887154
-0.011743037
-0.011538095
-0.011273674
-0.010951651
-0.0105744
-0.010144726
-0.0096657998
-0.0091410701
-0.0085741663
-0.0079687907
-0.0073286008
-0.0066570871
-0.005957433
-0.0052324244
-0.0044841182
-0.0037146002
-0.0029219053
-0.0021177128
-0.001251882
-0.00056105425
0.0031044191
0.0024923495
0.0018658987
0.0012242907
0.00057431047
-8.0778809e-05
-0.00074026127
-0.0014030735
-0.0020672421
-0.0027304302
-0.0033902272
-0.0040440936
-0.0046892768
-0.0053228062
-0.0059415245
-0.0065421131
-0.0071211118
-0.0076749438
-0.0081999495
-0.0086924257
-0.0091486717