/*--------------------------------*- C++ -*----------------------------------*\
  =========                 |
  \\      /  F ield         | OpenFOAM: The Open Source CFD Toolbox
   \\    /   O peration     | Website:  https://openfoam.org
    \\  /    A nd           | Version:  6
     \\/     M anipulation  |
\*---------------------------------------------------------------------------*/
FoamFile
{
    version     2.0;
    format      ascii;
    class       volScalarField;
    location    "350";
    object      pMean;
}
// * * * * * * * * * * * * * * * * * * * * * * * * * * * * * * * * * * * * * //

dimensions      [0 2 -2 0 0 0 0];

internalField   nonuniform List<scalar> 
9200
(
-0.38708593
-0.37539582
-0.36497546
-0.35575252
-0.34673684
-0.33793659
-0.32943263
-0.32119094
-0.31314215
-0.30521321
-0.29733089
-0.28942664
-0.28144362
-0.27334392
-0.26511886
-0.25680646
-0.2484858
-0.2402468
-0.23310431
-0.23130007
-0.40523105
-0.39109081
-0.37873038
-0.36798327
-0.35758544
-0.34751356
-0.33783893
-0.32849713
-0.31938742
-0.31041146
-0.3014771
-0.29250417
-0.28343192
-0.27422481
-0.26487776
-0.25541981
-0.24588488
-0.23627634
-0.22727254
-0.2210253
-0.4237501
-0.40714377
-0.39289363
-0.38069438
-0.36896904
-0.35764478
-0.34677199
-0.33624889
-0.3259422
-0.31573299
-0.30552009
-0.29522559
-0.28480125
-0.27423136
-0.26353205
-0.25274667
-0.2419181
-0.23105843
-0.22056627
-0.21155587
-0.44219744
-0.42314997
-0.40707833
-0.39348852
-0.3804538
-0.36783588
-0.35565722
-0.3437791
-0.33204461
-0.32033042
-0.30854772
-0.29664473
-0.28460935
-0.27246648
-0.26027083
-0.24809649
-0.23601307
-0.2240611
-0.21250852
-0.20209934
-0.45993111
-0.43855121
-0.42077692
-0.40587295
-0.39153606
-0.37755251
-0.36391767
-0.35046767
-0.33704341
-0.32354482
-0.30992523
-0.29618693
-0.28237633
-0.26857359
-0.25487886
-0.24139807
-0.22822262
-0.21541083
-0.20315127
-0.19195517
-0.47611536
-0.45261699
-0.43331716
-0.41718735
-0.40153937
-0.38608518
-0.37080668
-0.35554152
-0.34016314
-0.32463121
-0.30897366
-0.29327069
-0.27763984
-0.26221764
-0.24714131
-0.23253403
-0.21848989
-0.20506291
-0.19237876
-0.18077738
-0.48973526
-0.4644507
-0.44386362
-0.42660698
-0.4096261
-0.39257568
-0.37545309
-0.358139
-0.34058402
-0.32284652
-0.30505632
-0.28738423
-0.27001697
-0.25313379
-0.23688818
-0.2213972
-0.20673434
-0.19292767
-0.18004295
-0.16828317
-0.4996194
-0.47301399
-0.45145107
-0.43319068
-0.41486299
-0.39610049
-0.37695969
-0.35741676
-0.33754761
-0.31754332
-0.29765175
-0.27813282
-0.25922696
-0.24113237
-0.22399276
-0.20789542
-0.19287411
-0.17891701
-0.16603125
-0.15430427
-0.50442001
-0.47702432
-0.4547853
-0.43559495
-0.41586833
-0.39527889
-0.37400253
-0.35216776
-0.33001423
-0.30787987
-0.28612275
-0.26506833
-0.24497953
-0.22604224
-0.20836443
-0.19198548
-0.17688919
-0.16302006
-0.15033069
-0.13880943
-0.50278498
-0.47506034
-0.45231321
-0.43214995
-0.41091878
-0.38841804
-0.36500784
-0.34101341
-0.31685005
-0.29298412
-0.26984545
-0.24777915
-0.22702801
-0.20773309
-0.1899469
-0.17365292
-0.15878591
-0.14525272
-0.1329587
-0.12180577
-0.27125031
-0.27577242
-0.27804375
-0.27858534
-0.27814925
-0.27691353
-0.27496636
-0.27239901
-0.26928512
-0.26568085
-0.26163179
-0.25717692
-0.25235078
-0.24718484
-0.24170876
-0.23595287
-0.22994955
-0.22372081
-0.21726688
-0.21067602
-0.27408036
-0.27817569
-0.28013446
-0.28045512
-0.27983499
-0.27844343
-0.2763666
-0.27369176
-0.27048879
-0.26681086
-0.26270103
-0.25819608
-0.25332855
-0.24812784
-0.24262091
-0.23683699
-0.23081588
-0.22457791
-0.2180156
-0.2111026
-0.27959563
-0.28285809
-0.28420858
-0.2840972
-0.28311644
-0.28142011
-0.27909053
-0.27620717
-0.27283257
-0.269014
-0.26478946
-0.26019129
-0.25524808
-0.24998521
-0.24442467
-0.23859262
-0.23254014
-0.22628653
-0.21953116
-0.21201071
-0.28754077
-0.28961351
-0.29008494
-0.28933858
-0.28782202
-0.28566934
-0.28295841
-0.27975812
-0.27612085
-0.27208563
-0.26768323
-0.26293961
-0.25787757
-0.25251657
-0.24687164
-0.24096352
-0.23485489
-0.22856992
-0.22156209
-0.21319326
-0.29759426
-0.29818325
-0.29753801
-0.29596649
-0.29374364
-0.29098271
-0.2877578
-0.28412574
-0.28012693
-0.27579067
-0.27113905
-0.26618939
-0.26095665
-0.25545314
-0.2496856
-0.24366625
-0.23746529
-0.23112031
-0.22382869
-0.2144354
-0.30942277
-0.30829903
-0.30633602
-0.3037662
-0.30067585
-0.29715893
-0.29328802
-0.28910818
-0.2846472
-0.2799222
-0.27494404
-0.26972038
-0.26425707
-0.25855776
-0.25261993
-0.24644443
-0.24010114
-0.23364706
-0.22605355
-0.21553261
-0.3227301
-0.31972138
-0.31627542
-0.31255599
-0.30845313
-0.30404497
-0.29940647
-0.29457054
-0.28954974
-0.28434824
-0.27896499
-0.273396
-0.26763625
-0.26167967
-0.25551463
-0.24913034
-0.24258943
-0.23597145
-0.22808563
-0.21644801
-0.33728641
-0.33226335
-0.32720384
-0.32221248
-0.31698007
-0.31157205
-0.3060661
-0.30048235
-0.29481816
-0.28906286
-0.28320067
-0.27721306
-0.27108119
-0.26478689
-0.25830894
-0.25162795
-0.24480412
-0.237963
-0.22987032
-0.21734597
-0.35292765
-0.34578216
-0.33900098
-0.33263952
-0.326183
-0.31968304
-0.31322207
-0.30680701
-0.30041727
-0.29402434
-0.28759431
-0.28109013
-0.27447396
-0.26770755
-0.26074762
-0.25354805
-0.24613431
-0.23861491
-0.22975346
-0.2160757
-0.36954632
-0.36016049
-0.35154415
-0.34370841
-0.33592042
-0.3282178
-0.3206877
-0.31332177
-0.30607925
-0.29891235
-0.29176907
-0.28459594
-0.277341
-0.26995397
-0.26238094
-0.25456017
-0.24643749
-0.23781131
-0.22705378
-0.21116046
-0.20321049
-0.19390406
-0.18461301
-0.17540841
-0.16623423
-0.15713149
-0.14815524
-0.13934124
-0.13071846
-0.12231503
-0.11415624
-0.10626349
-0.098654868
-0.091345516
-0.084347664
-0.077670716
-0.071321387
-0.065303836
-0.059619794
-0.054268697
-0.049247835
-0.044552509
-0.040176209
-0.036110791
-0.032346671
-0.028873026
-0.025677991
-0.022748864
-0.020072304
-0.017634525
-0.015421479
-0.013419028
-0.011613108
-0.0099898767
-0.0085358487
-0.0072380217
-0.0060839977
-0.0050620772
-0.0041614365
-0.0033720365
-0.0026854843
-0.0020929204
-0.0015926367
-0.001167679
-0.00085660456
-0.00054370618
-0.00059009301
8.3367323e-06
-0.0017672054
0.0026249276
-0.20436126
-0.19463963
-0.18523001
-0.17603471
-0.16683565
-0.15769509
-0.14868741
-0.13984464
-0.131193
-0.12276124
-0.114575
-0.10665557
-0.099021014
-0.091686528
-0.084664412
-0.07796412
-0.071592417
-0.06555351
-0.059849166
-0.054478847
-0.049439857
-0.044727505
-0.040335273
-0.036255005
-0.032477096
-0.028990691
-0.02578389
-0.022843953
-0.020157494
-0.017710679
-0.01548941
-0.013479501
-0.011666834
-0.010037516
-0.0085780104
-0.0072752649
-0.0061168324
-0.005090966
-0.0041867959
-0.0033942386
-0.0027048565
-0.002109749
-0.0016071477
-0.001180098
-0.00086688353
-0.00055240891
-0.00059509448
1.2937337e-06
-0.0017538913
0.0025959831
-0.20673684
-0.19613321
-0.18648958
-0.17735487
-0.16812049
-0.15890559
-0.14983766
-0.14093902
-0.13222879
-0.12373799
-0.11549367
-0.107517
-0.099826151
-0.092436676
-0.08536115
-0.07860924
-0.0721879
-0.066101503
-0.060351944
-0.054938778
-0.049859371
-0.045109064
-0.040681342
-0.036568027
-0.032759469
-0.029244753
-0.0260119
-0.023048077
-0.020339799
-0.017873121
-0.015633831
-0.013607624
-0.011780262
-0.010137733
-0.0086663809
-0.0073530375
-0.006185143
-0.0051508412
-0.0042391575
-0.0034399067
-0.0027445523
-0.0021440993
-0.0016366558
-0.0012052442
-0.00088763145
-0.00056984973
-0.00060516187
-1.2572922e-05
-0.0017276629
0.0025386877
-0.21012809
-0.19811257
-0.188129
-0.17918515
-0.1699486
-0.1606409
-0.15150345
-0.14254131
-0.1337576
-0.1251886
-0.11686536
-0.10880917
-0.10103852
-0.093569847
-0.086416455
-0.079588543
-0.073093522
-0.066936154
-0.06111865
-0.055640803
-0.050500153
-0.04569215
-0.04121034
-0.037046553
-0.03319111
-0.029633028
-0.026360229
-0.02335976
-0.020617991
-0.018120821
-0.015853868
-0.013802649
-0.011952747
-0.010289965
-0.0088004669
-0.0074709045
-0.006288544
-0.0052413605
-0.0043182166
-0.0035087697
-0.0028043304
-0.0021957568
-0.0016809697
-0.0012429485
-0.00091869828
-0.0005958951
-0.00062021478
-3.3091585e-05
-0.0016890855
0.0024542559
-0.21425386
-0.20026609
-0.18984298
-0.1812928
-0.1721417
-0.16274521
-0.15354953
-0.14454001
-0.13568782
-0.12703647
-0.11862588
-0.1104787
-0.10261389
-0.095049419
-0.08780007
-0.080877111
-0.074288817
-0.068040699
-0.062135583
-0.056573745
-0.051353093
-0.046469345
-0.041916223
-0.037685654
-0.033767986
-0.030152202
-0.026826143
-0.023776727
-0.020990166
-0.018452171
-0.016148151
-0.014063402
-0.012183271
-0.010493326
-0.0089794913
-0.0076281817
-0.0064264315
-0.0053619894
-0.0044235001
-0.0036004089
-0.0028838203
-0.0022643945
-0.0017398009
-0.0012929574
-0.00095986454
-0.00063034572
-0.000640155
-5.9982137e-05
-0.0016390731
0.0023445723
-0.21872089
-0.20228088
-0.19133454
-0.18341538
-0.17449958
-0.16505057
-0.15582176
-0.146801
-0.13790848
-0.12918923
-0.12069723
-0.11245991
-0.10449744
-0.096829799
-0.089474098
-0.082443494
-0.075747746
-0.069393606
-0.063384948
-0.057722899
-0.052406035
-0.047430586
-0.042790642
-0.038478382
-0.034484292
-0.030797404
-0.027405531
-0.024295493
-0.02145335
-0.018864619
-0.01651448
-0.014387972
-0.012470173
-0.010746365
-0.0092021831
-0.0078237543
-0.0065978265
-0.005511869
-0.0045542548
-0.0037141649
-0.0029824459
-0.0023495105
-0.0018127136
-0.001354895
-0.0010108118
-0.00067292195
-0.0006648459
-9.2888045e-05
-0.0015787988
0.0022120884
-0.2231032
-0.20395674
-0.19237746
-0.185258
-0.17680276
-0.16741222
-0.15818906
-0.14919722
-0.14030983
-0.13155616
-0.12300268
-0.11468704
-0.10663307
-0.098863277
-0.091397891
-0.084252969
-0.077440586
-0.07096939
-0.06484485
-0.059069412
-0.053642711
-0.048561802
-0.043821407
-0.039414153
-0.035330826
-0.031560623
-0.028091409
-0.024909963
-0.022002222
-0.019353519
-0.016948797
-0.014772821
-0.012810366
-0.011046393
-0.0094662068
-0.0080555973
-0.0068009785
-0.0056894901
-0.0047091846
-0.0038489292
-0.003099264
-0.0024503069
-0.0018990371
-0.0014282045
-0.0010710871
-0.0007232539
-0.00069410671
-0.00013142608
-0.001509608
0.0020596798
-0.22712343
-0.20567657
-0.19319204
-0.1866326
-0.17883292
-0.16973549
-0.16059991
-0.15166463
-0.14282188
-0.1340735
-0.12548507
-0.11710718
-0.10897172
-0.101105
-0.093530801
-0.086268866
-0.079334414
-0.072738638
-0.066489127
-0.060590102
-0.055042644
-0.049844964
-0.044992677
-0.04047908
-0.036295432
-0.032431234
-0.028874504
-0.025612051
-0.022629742
-0.019912747
-0.017445784
-0.015213336
-0.01319986
-0.011389968
-0.0097685987
-0.0083211693
-0.0070337175
-0.0058930102
-0.0048867346
-0.0040033993
-0.0032331927
-0.0025658952
-0.0019980502
-0.0015123124
-0.0011402469
-0.00078100413
-0.00072781174
-0.00017527815
-0.0014329884
0.0018906024
-0.22844227
-0.20765277
-0.19444539
-0.18746789
-0.18015527
-0.17163925
-0.16277938
-0.15397
-0.14522869
-0.13655012
-0.12798306
-0.11958608
-0.11140251
-0.1034648
-0.095800952
-0.088435026
-0.081386296
-0.074669377
-0.068294749
-0.062269106
-0.056595607
-0.051274175
-0.046301803
-0.041672872
-0.037379463
-0.033411662
-0.029757873
-0.026405118
-0.023339325
-0.020545606
-0.018008517
-0.015712301
-0.013641109
-0.011779207
-0.010111152
-0.00862196
-0.0072972591
-0.006123403
-0.0050876696
-0.0041781624
-0.00338467
-0.0026965877
-0.0021099611
-0.0016073346
-0.0012183494
-0.00084611915
-0.00076608146
-0.0002239413
-0.0013508404
0.0017090988
-0.21872159
-0.20697579
-0.19565623
-0.18725945
-0.17988412
-0.17215327
-0.16390657
-0.15546749
-0.14701483
-0.13857608
-0.13018091
-0.12188806
-0.11375369
-0.10582096
-0.098125597
-0.090698675
-0.083566064
-0.07674815
-0.07026033
-0.064113481
-0.058314295
-0.052865629
-0.047766874
-0.043014331
-0.038601577
-0.034519834
-0.030758321
-0.027304603
-0.024144924
-0.021264517
-0.018647904
-0.016279168
-0.014142201
-0.012220933
-0.010499534
-0.0089625961
-0.0075952996
-0.0063835404
-0.0053141373
-0.0043747345
-0.0035546659
-0.0028428847
-0.0022348793
-0.0017130357
-0.001304945
-0.00091780279
-0.00080848313
-0.00027549566
-0.00126562
0.0015207834
-0.19682367
-0.20093692
-0.19527805
-0.18610593
-0.17831462
-0.17100191
-0.16320882
-0.15507658
-0.14686932
-0.13865134
-0.13044457
-0.12230346
-0.1142881
-0.10644626
-0.09881705
-0.091434679
-0.08432817
-0.07752087
-0.071030843
-0.064871357
-0.059051239
-0.053575224
-0.048444339
-0.043656295
-0.039205872
-0.035085297
-0.031284626
-0.027792102
-0.024594505
-0.021677487
-0.019025878
-0.016623974
-0.014455806
-0.012505372
-0.010756858
-0.0091948225
-0.0078043774
-0.0065713196
-0.0054823415
-0.0045249459
-0.0036882747
-0.0029611525
-0.0023385855
-0.0018033887
-0.0013803256
-0.00098297863
-0.00084512629
-0.00032674959
-0.0011774093
0.0013338625
-0.1860437
-0.19126586
-0.18743466
-0.17849044
-0.17104474
-0.16451492
-0.15755049
-0.15015831
-0.1426308
-0.13504407
-0.12741082
-0.1197815
-0.1122188
-0.10477443
-0.097491332
-0.090407817
-0.083557213
-0.07696714
-0.070659747
-0.064652174
-0.058956875
-0.053581952
-0.048531525
-0.04380613
-0.039403105
-0.035316988
-0.031539894
-0.028061901
-0.024871408
-0.021955478
-0.019300172
-0.016890844
-0.014712423
-0.012749667
-0.010987392
-0.0094106729
-0.008005037
-0.0067566067
-0.005652313
-0.0046798432
-0.0038283892
-0.0030869443
-0.0024500275
-0.0019015063
-0.0014622236
-0.0010551472
-0.00088394746
-0.00038681108
-0.0010767967
0.0011315886
-0.17702184
-0.17972566
-0.17712084
-0.16992461
-0.16336389
-0.157557
-0.15138453
-0.1447459
-0.13790354
-0.13095304
-0.12390946
-0.11681728
-0.10973809
-0.10272557
-0.095824969
-0.089077185
-0.082518676
-0.076180498
-0.070088317
-0.064262766
-0.058719721
-0.053470568
-0.048522541
-0.043879089
-0.039540249
-0.035503038
-0.031761827
-0.028308728
-0.025133959
-0.022226199
-0.019572925
-0.017160726
-0.014975595
-0.013003197
-0.011229113
-0.0096390522
-0.0082190586
-0.0069556693
-0.0058361266
-0.0048483655
-0.0039816684
-0.0032252495
-0.0025731076
-0.0020103095
-0.0015533546
-0.0011356462
-0.00092762563
-0.00045374132
-0.00096705698
0.00090936405
-0.16705925
-0.16725777
-0.16513624
-0.16002742
-0.15472152
-0.14968567
-0.14432857
-0.13852315
-0.13244359
-0.12619075
-0.11979516
-0.11329947
-0.10676201
-0.10023723
-0.093772333
-0.087410419
-0.081190628
-0.075147181
-0.06930914
-0.063700621
-0.058340994
-0.05324508
-0.048423426
-0.043882629
-0.03962569
-0.035652373
-0.031959579
-0.028541722
-0.025391099
-0.022498245
-0.019852282
-0.017441243
-0.015252373
-0.013272414
-0.011487858
-0.0098851825
-0.0084510599
-0.0071725371
-0.0060372474
-0.0050334376
-0.0041505304
-0.0033779952
-0.0027093285
-0.0021308057
-0.001654533
-0.0012244043
-0.00097721936
-0.00052464933
-0.00085584689
0.00067741486
-0.15621771
-0.15463876
-0.15258536
-0.14919927
-0.14520513
-0.14100036
-0.1364634
-0.13152165
-0.12625702
-0.12075257
-0.11505402
-0.10920656
-0.10326439
-0.097280865
-0.091304244
-0.085379034
-0.0795463
-0.073842838
-0.068300725
-0.062947338
-0.057805441
-0.052893304
-0.048224891
-0.04381012
-0.03965517
-0.035762804
-0.032132721
-0.028761914
-0.025645028
-0.022774725
-0.020142022
-0.01773663
-0.015547265
-0.01356194
-0.011768236
-0.010153551
-0.0087053215
-0.0074112178
-0.0062593613
-0.0052383873
-0.0043379234
-0.00354773
-0.0028608526
-0.0022647196
-0.0017672038
-0.0013222186
-0.001034036
-0.00059864994
-0.0007491146
0.00044388056
-0.14419569
-0.14190704
-0.14001251
-0.13791025
-0.13510188
-0.13175599
-0.12802747
-0.12392843
-0.1194811
-0.11474143
-0.1097624
-0.1045909
-0.099276768
-0.093870939
-0.088421525
-0.082973375
-0.077568349
-0.072244813
-0.067037084
-0.061975208
-0.057084916
-0.05238764
-0.047900603
-0.043636995
-0.039606209
-0.03581411
-0.032263348
-0.028953679
-0.025882312
-0.023044251
-0.020432634
-0.01803907
-0.015853953
-0.013866769
-0.012066368
-0.010441234
-0.0089797133
-0.0076702311
-0.0065015071
-0.0054626569
-0.0045435933
-0.0037344101
-0.0030277847
-0.002412205
-0.001891635
-0.001429154
-0.0010988571
-0.00067504364
-0.00065274682
0.00021736086
-0.13131181
-0.12920797
-0.12769777
-0.12651997
-0.12468907
-0.1221725
-0.11922358
-0.11591992
-0.11225949
-0.10827236
-0.1040101
-0.099520916
-0.094849355
-0.09004149
-0.085144027
-0.080201307
-0.075254947
-0.07034373
-0.065503191
-0.060765224
-0.05615786
-0.051705171
-0.047427253
-0.04334031
-0.039456798
-0.035785627
-0.03233241
-0.029099744
-0.026087516
-0.023293222
-0.020712291
-0.01833841
-0.016163838
-0.01417971
-0.012376325
-0.010743412
-0.0092703814
-0.0079465468
-0.0067613476
-0.0057044802
-0.0047662365
-0.0039370937
-0.00320947
-0.0025727945
-0.0020275883
-0.001544932
-0.0011722029
-0.00075317725
-0.00057260835
7.0692337e-06
-0.11827425
-0.11678552
-0.11579172
-0.11528409
-0.11422269
-0.1124585
-0.11023761
-0.10766664
-0.10474031
-0.10147125
-0.097902945
-0.094081344
-0.090047629
-0.085842341
-0.08150763
-0.077086124
-0.072618482
-0.068142924
-0.063695111
-0.059307803
-0.055010504
-0.050829225
-0.046786372
-0.042900717
-0.039187453
-0.035658313
-0.032321745
-0.029183132
-0.026245051
-0.02350755
-0.020968447
-0.018623629
-0.016467362
-0.014492585
-0.012691193
-0.011054318
-0.0095725771
-0.0082363068
-0.0070357906
-0.0059614134
-0.0050039483
-0.0041543141
-0.0034047992
-0.0027456481
-0.0021745059
-0.0016690995
-0.0012543662
-0.00083266341
-0.00051378043
-0.00017824805
-0.10561578
-0.10481627
-0.10435932
-0.10436031
-0.1039007
-0.10278902
-0.10122513
-0.099315736
-0.097058728
-0.094457322
-0.091545096
-0.088362441
-0.084945976
-0.081331771
-0.077557364
-0.073661206
-0.069681652
-0.065655602
-0.061617962
-0.057601388
-0.053635951
-0.049748809
-0.045963987
-0.04230225
-0.038781061
-0.035414612
-0.032213921
-0.029186979
-0.026338949
-0.023672392
-0.021187525
-0.018882494
-0.016753655
-0.014795853
-0.013002708
-0.011366876
-0.0098803123
-0.0085345028
-0.0073206955
-0.0062300714
-0.0052539922
-0.0043838843
-0.0036120478
-0.0029294284
-0.0023314139
-0.0018009739
-0.0013453147
-0.00091341791
-0.00047980851
-0.00033150454
-0.093614738
-0.093417635
-0.09344532
-0.09384731
-0.093861906
-0.093298647
-0.092309103
-0.09098552
-0.089327811
-0.087334392
-0.085029627
-0.082446711
-0.079616889
-0.076571091
-0.073342304
-0.069964821
-0.066473173
-0.062901705
-0.059283778
-0.055651139
-0.052033565
-0.048458544
-0.044950982
-0.041532986
-0.03822373
-0.0350394
-0.031993211
-0.029095475
-0.026353733
-0.023772927
-0.0213556
-0.019102132
-0.01701099
-0.015078982
-0.013301524
-0.011672895
-0.01018649
-0.0088350537
-0.0076109077
-0.0065061323
-0.005512783
-0.0046228659
-0.0038288391
-0.0031222614
-0.0024968855
-0.0019396029
-0.0014446233
-0.0009955731
-0.00047214374
-0.00044833167
-0.082407022
-0.082678986
-0.083102104
-0.083818237
-0.084205185
-0.084091073
-0.083589015
-0.08277295
-0.081642142
-0.080191971
-0.07843901
-0.076408933
-0.074127095
-0.071619073
-0.068912705
-0.066037853
-0.063025169
-0.059905482
-0.056709569
-0.053467496
-0.050208005
-0.046958147
-0.04374297
-0.040585244
-0.03750525
-0.034520639
-0.031646372
-0.028894716
-0.026275303
-0.023795232
-0.021459224
-0.019269797
-0.017227485
-0.015331054
-0.013577747
-0.011963518
-0.010483275
-0.0091311055
-0.0079004973
-0.0067845213
-0.0057760258
-0.0048676711
-0.0040522171
-0.0033217824
-0.002669071
-0.0020837564
-0.0015514455
-0.0010793301
-0.00048985726
-0.00052784521
-0.072050313
-0.072661324
-0.073381638
-0.074332615
-0.075004774
-0.075248392
-0.075148087
-0.074760864
-0.07408371
-0.073109452
-0.071848188
-0.070318512
-0.06853978
-0.066532153
-0.064318214
-0.061922918
-0.05937269
-0.056694673
-0.053916371
-0.051065327
-0.048168538
-0.045251927
-0.04233999
-0.039455487
-0.036619182
-0.033849629
-0.031163039
-0.028573208
-0.026091499
-0.023726888
-0.02148605
-0.019373486
-0.017391686
-0.015541319
-0.013821431
-0.012229667
-0.010762484
-0.0094153685
-0.0081830427
-0.0070596457
-0.0060389061
-0.0051142129
-0.004278763
-0.0035252186
-0.0028457564
-0.0022319305
-0.0016645122
-0.0011647826
-0.00052971985
-0.00057289807
-0.062554624
-0.063396008
-0.06432325
-0.065436606
-0.066317186
-0.06683601
-0.067056478
-0.067021563
-0.066725656
-0.066159315
-0.065327269
-0.064241834
-0.062916665
-0.061366649
-0.0596092
-0.057664299
-0.055553797
-0.053300829
-0.050929372
-0.048463892
-0.045928955
-0.043348713
-0.040746471
-0.038144343
-0.035562954
-0.033021186
-0.030535974
-0.028122174
-0.025792479
-0.023557398
-0.021425282
-0.019402398
-0.017493034
-0.015699644
-0.014023016
-0.012462452
-0.01101596
-0.0096804504
-0.0084519253
-0.0073256497
-0.0062963063
-0.0053580835
-0.0045047384
-0.0037294951
-0.0030244411
-0.0023823653
-0.0017821627
-0.0012517576
-0.00058668133
-0.00058965847
-0.053903628
-0.054889975
-0.055948377
-0.057160989
-0.058183137
-0.058904265
-0.059371651
-0.059617126
-0.059632922
-0.059407801
-0.058942146
-0.058242944
-0.057318746
-0.056179548
-0.054837873
-0.053308871
-0.051609802
-0.04975956
-0.047778327
-0.045687211
-0.043507868
-0.041262108
-0.038971466
-0.036656824
-0.03433808
-0.032033869
-0.029761313
-0.027535832
-0.025371008
-0.023278498
-0.021268002
-0.019347281
-0.01752221
-0.015796868
-0.01417367
-0.012653501
-0.011235886
-0.0099191517
-0.0087005993
-0.0075766575
-0.0065430204
-0.0055947394
-0.0047262409
-0.0039313551
-0.0032024303
-0.0025330797
-0.0019024141
-0.0013397184
-0.00065468533
-0.00058651348
-0.046065211
-0.047131135
-0.048260405
-0.049520318
-0.050627801
-0.051488615
-0.052137719
-0.052598289
-0.052861115
-0.052913796
-0.052753375
-0.052382518
-0.051805448
-0.051027858
-0.050057845
-0.048906067
-0.047585376
-0.046110457
-0.044497566
-0.042764241
-0.040928956
-0.039010768
-0.037028954
-0.035002643
-0.032950473
-0.030890286
-0.02883886
-0.026811678
-0.02482274
-0.022884432
-0.021007437
-0.019200694
-0.0174714
-0.015825056
-0.014265538
-0.012795206
-0.011415023
-0.010124694
-0.0089228086
-0.0078069755
-0.0067739385
-0.0058196658
-0.0049393456
-0.004127476
-0.0033769289
-0.0026819256
-0.0020230672
-0.0014277563
-0.00072765021
-0.00057250671
-0.038996837
-0.040093582
-0.041247713
-0.042514374
-0.043661806
-0.044610239
-0.045385321
-0.046003645
-0.046455284
-0.046727344
-0.046814504
-0.046716112
-0.046432922
-0.045967041
-0.045322755
-0.044506725
-0.043527759
-0.042396558
-0.041125533
-0.039728594
-0.038220884
-0.036618464
-0.034938004
-0.03319646
-0.031410745
-0.029597425
-0.027772433
-0.025950819
-0.024146535
-0.022372254
-0.02063924
-0.018957259
-0.017334529
-0.015777713
-0.01429195
-0.012880911
-0.011546887
-0.010290886
-0.0091127442
-0.0080112397
-0.0069841846
-0.0060285032
-0.0051402197
-0.0043145677
-0.0035451275
-0.0028266538
-0.0021418367
-0.0015146636
-0.000800376
-0.00055569867
-0.032650067
-0.033742504
-0.034887773
-0.036131055
-0.037283299
-0.038277518
-0.039132431
-0.039859734
-0.040449409
-0.040888675
-0.04117073
-0.041292547
-0.041252273
-0.041049203
-0.040684504
-0.040161456
-0.03948532
-0.038663191
-0.03770389
-0.036617827
-0.03541681
-0.034113809
-0.032722689
-0.031257939
-0.02973439
-0.028166921
-0.026570181
-0.024958335
-0.023344828
-0.021742181
-0.020161828
-0.01861398
-0.017107537
-0.015650036
-0.014247628
-0.012905101
-0.011625915
-0.010412267
-0.0092651689
-0.008184528
-0.0071692175
-0.0062171386
-0.0053252041
-0.0044894456
-0.0037042724
-0.0029649855
-0.0022564821
-0.0015990593
-0.00086914007
-0.00054190114
-0.026973961
-0.028037898
-0.029150722
-0.030349436
-0.031480482
-0.032488083
-0.03338586
-0.034181946
-0.034866713
-0.03542798
-0.035858207
-0.036152831
-0.036308189
-0.036321517
-0.036191587
-0.035918958
-0.035505933
-0.034956492
-0.034276248
-0.033472388
-0.032553547
-0.031529646
-0.030411695
-0.029211568
-0.027941772
-0.026615193
-0.025244843
-0.023843605
-0.022424007
-0.020998003
-0.019576784
-0.018170624
-0.016788745
-0.015439235
-0.01412898
-0.012863644
-0.011647664
-0.010484277
-0.009375559
-0.0083224753
-0.007324925
-0.0063817829
-0.0054908783
-0.0046490892
-0.0038517218
-0.0030946812
-0.0023649125
-0.001679523
-0.00093184106
-0.00053412513
-0.021917366
-0.02293721
-0.024002174
-0.025142504
-0.026234138
-0.027231046
-0.028143116
-0.028975929
-0.029720584
-0.030365845
-0.030904019
-0.031329699
-0.031638104
-0.031825101
-0.031887746
-0.031824543
-0.031635454
-0.031321896
-0.030886751
-0.030334365
-0.029670488
-0.02890218
-0.028037672
-0.027086214
-0.026057883
-0.024963385
-0.023813834
-0.02262053
-0.021394733
-0.020147461
-0.018889285
-0.017630162
-0.016379282
-0.015144945
-0.01393447
-0.012754129
-0.011609111
-0.010503505
-0.0094403074
-0.0084214377
-0.0074477536
-0.0065190721
-0.0056341392
-0.0047907051
-0.0039850023
-0.0032136091
-0.002465253
-0.0017547007
-0.0009877164
-0.00053282073
-0.017430787
-0.018397553
-0.019405647
-0.020479682
-0.021520121
-0.022489349
-0.023394519
-0.024239399
-0.02501601
-0.025714274
-0.026326771
-0.02684778
-0.027271972
-0.027594424
-0.027811087
-0.027919019
-0.027916444
-0.02780278
-0.027578697
-0.027246153
-0.026808389
-0.026269895
-0.025636328
-0.024914421
-0.024111844
-0.023237056
-0.022299131
-0.021307572
-0.020272117
-0.019202538
-0.018108464
-0.016999192
-0.015883535
-0.014769679
-0.01366506
-0.012576279
-0.011509022
-0.010468019
-0.0094570108
-0.008478733
-0.007534905
-0.0066262238
-0.0057523227
-0.0049118242
-0.0041018858
-0.0033198194
-0.0025558783
-0.0018233713
-0.0010368169
-0.00053669163
-0.013467458
-0.014377135
-0.015324272
-0.016328721
-0.017311364
-0.018241813
-0.019125197
-0.019963988
-0.020751217
-0.021478056
-0.022137636
-0.022724312
-0.023232629
-0.023657342
-0.023993795
-0.024238138
-0.024387397
-0.024439531
-0.024393511
-0.024249384
-0.024008314
-0.02367258
-0.023245562
-0.022731682
-0.022136337
-0.021465789
-0.020727042
-0.019927698
-0.019075804
-0.018179676
-0.017247733
-0.01628833
-0.0153096
-0.014319304
-0.013324699
-0.012332425
-0.011348408
-0.010377785
-0.0094248407
-0.0084929651
-0.0075846114
-0.006701266
-0.0058433901
-0.0050104501
-0.0042005047
-0.0034116395
-0.0026354371
-0.0018844855
-0.0010794863
-0.00054368853
-0.0099848272
-0.010837001
-0.011722716
-0.012657747
-0.013580002
-0.014465274
-0.015317165
-0.016137209
-0.016919442
-0.017656296
-0.018341605
-0.018970051
-0.019536357
-0.020035296
-0.020461997
-0.020812133
-0.021081996
-0.02126856
-0.021369575
-0.021383645
-0.021310288
-0.021149979
-0.02090416
-0.020575234
-0.020166538
-0.019682284
-0.019127478
-0.018507826
-0.017829613
-0.01709957
-0.016324735
-0.0155123
-0.014669471
-0.013803321
-0.012920653
-0.01202788
-0.011130909
-0.010235045
-0.0093449097
-0.0084643624
-0.007596441
-0.0067433041
-0.0059061555
-0.0050852497
-0.0042795035
-0.0034877909
-0.0027028923
-0.001937202
-0.0011160295
-0.00055181257
-0.0069445148
-0.0077414457
-0.0085680152
-0.0094364729
-0.010298932
-0.011136445
-0.011951436
-0.012744737
-0.01351133
-0.014244841
-0.01493987
-0.015591571
-0.016195031
-0.016745271
-0.017237489
-0.017667209
-0.018030354
-0.018323313
-0.018543028
-0.01868708
-0.018753762
-0.018742137
-0.018652081
-0.018484304
-0.018240362
-0.017922634
-0.017534289
-0.017079225
-0.016561994
-0.015987712
-0.015361942
-0.014690582
-0.01397973
-0.013235567
-0.012464217
-0.011671629
-0.010863458
-0.010044952
-0.0092208531
-0.0083953041
-0.0075717634
-0.0067529259
-0.0059406298
-0.005135839
-0.0043382661
-0.0035475617
-0.0027576154
-0.0019809566
-0.0011466287
-0.00055955455
-0.0043138085
-0.0050593462
-0.0058307603
-0.006637195
-0.0074426078
-0.0082325103
-0.0090084007
-0.0097705616
-0.010514822
-0.0112359
-0.011929151
-0.012590264
-0.013214786
-0.013798123
-0.014335723
-0.014823193
-0.015256359
-0.015631332
-0.015944582
-0.016193025
-0.016374097
-0.016485819
-0.016526858
-0.016496569
-0.01639503
-0.016223052
-0.015982182
-0.015674678
-0.01530347
-0.014872103
-0.014384668
-0.013845708
-0.01326012
-0.012633052
-0.011969783
-0.011275614
-0.010555746
-0.00981517
-0.0090585552
-0.0082901435
-0.0075136467
-0.0067321511
-0.005948007
-0.0051627902
-0.0043769305
-0.0035908176
-0.0027993789
-0.0020154539
-0.0011713527
-0.00056595742
-0.0020669387
-0.0027665565
-0.0034884544
-0.004239131
-0.0049923512
-0.0057373536
-0.0064748885
-0.0072047963
-0.0079236366
-0.0086270865
-0.0093112029
-0.0099722053
-0.010606131
-0.011208833
-0.011776108
-0.012303788
-0.012787788
-0.01322416
-0.013609162
-0.013939327
-0.01421154
-0.014423103
-0.0145718
-0.014655952
-0.014674468
-0.014626879
-0.014513363
-0.014334754
-0.01409253
-0.013788797
-0.013426243
-0.013008089
-0.012538012
-0.01202007
-0.011458604
-0.010858143
-0.010223292
-0.0095586289
-0.0088685858
-0.0081573414
-0.0074287067
-0.0066860164
-0.0059320045
-0.0051687496
-0.0043973052
-0.0036187373
-0.0028289352
-0.0020411161
-0.0011905795
-0.00057070313
-0.00017911557
-0.0008383622
-0.0015166898
-0.0022182143
-0.0029247658
-0.0036286933
-0.0043301425
-0.0050285833
-0.0057211822
-0.0064044304
-0.0070750028
-0.0077296095
-0.0083647584
-0.0089767495
-0.0095617652
-0.010115933
-0.010635363
-0.011116193
-0.011554641
-0.011947068
-0.012290045
-0.012580411
-0.012815344
-0.012992413
-0.013109645
-0.013165568
-0.013159254
-0.013090352
-0.012959103
-0.012766346
-0.012513508
-0.012202583
-0.011836082
-0.011416985
-0.010948671
-0.010434839
-0.0098794154
-0.0092864539
-0.0086600308
-0.0080041309
-0.0073225311
-0.0066186834
-0.0058955819
-0.0051556938
-0.0044005934
-0.0036319399
-0.0028464935
-0.0020578449
-0.0012040769
-0.00057334043
0.0013464213
0.00072003676
7.7546224e-05
-0.0005834158
-0.0012510866
-0.001920256
-0.002590574
-0.0032612126
-0.0039298253
-0.0045935621
-0.00524961
-0.0058950989
-0.0065269498
-0.0071418704
-0.0077364107
-0.008307006
-0.0088500053
-0.009361704
-0.0098383884
-0.010276386
-0.01067212
-0.011022166
-0.011323314
-0.011572626
-0.011767498
-0.011905717
-0.011985512
-0.012005601
-0.011965229
-0.011864191
-0.011702848
-0.011482125
-0.011203501
-0.01086898
-0.010481041
-0.010042583
-0.00955685
-0.009027344
-0.0084577291
-0.0078517227
-0.0072129789
-0.0065449689
-0.0058508425
-0.0051333497
-0.0043944785
-0.0036363828
-0.0028565815
-0.0020689849
-0.0012142009
-0.0005750743
0.0025516399
0.0019523057
0.0013391653
0.00071147183
7.5986429e-05
-0.00056403038
-0.0012078465
-0.0018543851
-0.0025016678
-0.0031473584
-0.00378905
-0.0044242112
-0.0050501032
-0.005663776
-0.0062620998
-0.0068417915
-0.0073994351
-0.0079315071
-0.0084344109
-0.008904517
-0.0093382086
-0.0097319321
-0.010082251
-0.010385903
-0.01063986