/*--------------------------------*- C++ -*----------------------------------*\
  =========                 |
  \\      /  F ield         | OpenFOAM: The Open Source CFD Toolbox
   \\    /   O peration     | Website:  https://openfoam.org
    \\  /    A nd           | Version:  6
     \\/     M anipulation  |
\*---------------------------------------------------------------------------*/
FoamFile
{
    version     2.0;
    format      ascii;
    class       volSymmTensorField;
    location    "350";
    object      UPrime2Mean;
}
// * * * * * * * * * * * * * * * * * * * * * * * * * * * * * * * * * * * * * //

dimensions      [0 2 -2 0 0 0 0];

internalField   nonuniform List<symmTensor> 
9200
(
(5.6747378e-05 -4.4047443e-05 2.0515186e-22 3.5346482e-05 -1.0962403e-22 3.3241696e-39)
(0.00035042888 -0.00028047426 5.2787939e-22 0.00022535035 -3.9389898e-22 3.6167048e-39)
(0.00070988928 -0.00055011351 6.2818201e-23 0.00042883388 -4.7670644e-23 1.9827113e-39)
(0.0011213239 -0.00081114717 -7.9786833e-22 0.00059349288 5.6041145e-22 3.953821e-39)
(0.0015287641 -0.001043987 3.925069e-23 0.00072551822 -3.2124107e-23 5.7956307e-40)
(0.0019041492 -0.0012381313 3.3808302e-22 0.00082468879 -2.2374017e-22 9.179794e-41)
(0.0022278226 -0.0013897656 -7.4010202e-23 0.00089431515 5.0789612e-23 2.626346e-40)
(0.0024837187 -0.0014989381 6.7223019e-23 0.0009400171 -4.4859927e-23 1.768818e-40)
(0.0026604598 -0.0015675682 3.2837337e-22 0.00096721132 -1.9857661e-22 5.0480482e-40)
(0.0027518097 -0.0015985664 2.5616224e-23 0.0009805126 -1.556332e-23 1.4413998e-42)
(0.002756771 -0.0015954233 -3.562043e-22 0.00098373859 2.1778794e-22 2.7144978e-40)
(0.0026795967 -0.0015619551 2.9922202e-22 0.00097995238 -1.8958397e-22 3.7661943e-41)
(0.0025294865 -0.0015021413 -5.3455917e-22 0.00097153015 3.576226e-22 5.8168737e-40)
(0.0023198364 -0.0014200268 -2.7219367e-22 0.00096025618 1.8560991e-22 3.7751585e-41)
(0.0020670588 -0.0013196587 7.0791476e-23 0.00094742748 -5.1999946e-23 4.7855968e-42)
(0.0017890756 -0.0012050299 -2.680141e-22 0.00093395493 2.0759102e-22 5.0748348e-41)
(0.0015036042 -0.0010800287 2.3649898e-22 0.00092050867 -1.9835392e-22 6.1373665e-41)
(0.00122642 -0.00094845905 1.773729e-22 0.00090800188 -1.5566534e-22 2.4694151e-40)
(0.00097103338 -0.00081386307 -5.6471478e-24 0.00089763417 1.235409e-23 4.5330538e-41)
(0.00075247711 -0.00067866418 -2.9584035e-24 0.00088043607 1.0828442e-23 5.6189742e-41)
(7.4925557e-05 -5.0084343e-05 2.1335093e-23 3.4379283e-05 -8.1503994e-24 5.8513522e-41)
(0.0004472621 -0.00030993685 5.590117e-22 0.00021544042 -3.6361389e-22 3.8573622e-39)
(0.00089101356 -0.0005989687 -1.8019559e-22 0.00040497589 1.2092479e-22 2.094971e-39)
(0.0013686902 -0.0008671215 -1.432891e-21 0.00055561946 8.9468291e-22 9.1501289e-39)
(0.0018151447 -0.0010960958 -5.0379417e-23 0.00067386792 3.1794332e-23 1.1542652e-40)
(0.0021976709 -0.0012765889 1.1120703e-21 0.00076066376 -6.548127e-22 3.0289403e-39)
(0.0024957519 -0.0014068687 -4.5879357e-22 0.00082033954 2.672285e-22 1.0443763e-40)
(0.0026959569 -0.001489381 -1.3869993e-22 0.00085900917 8.0083399e-23 3.7249965e-41)
(0.0027923396 -0.0015283102 5.2876996e-22 0.0008822601 -3.0703617e-22 2.8514072e-40)
(0.0027863113 -0.0015285557 -6.4356959e-22 0.00089466075 3.797269e-22 3.279894e-40)
(0.0026860793 -0.0014952634 -4.5835716e-22 0.00089979659 2.7714382e-22 4.039929e-40)
(0.0025057605 -0.0014335542 9.9461953e-22 0.00090034099 -6.2531534e-22 2.0555178e-39)
(0.0022639922 -0.0013483857 4.651644e-22 0.00089815053 -3.1119178e-22 1.4523269e-40)
(0.0019820673 -0.0012445052 -7.3700669e-22 0.00089437941 5.2626008e-22 7.1472899e-40)
(0.0016818039 -0.0011264471 1.3316363e-22 0.00088959157 -1.0246454e-22 5.9355527e-41)
(0.0013834471 -0.00099853897 -2.9716404e-22 0.00088385892 2.5615433e-22 1.5916855e-40)
(0.0011038724 -0.00086490161 -1.2300659e-22 0.00087687451 1.249275e-22 4.9890549e-41)
(0.0008552917 -0.00072936599 3.8202085e-22 0.0008681058 -4.2170709e-22 8.0754647e-40)
(0.00064525199 -0.00059503238 1.822755e-22 0.00085595681 -2.3951129e-22 1.5435438e-40)
(0.00047904065 -0.00046496501 -7.9617132e-23 0.00083229162 9.8071046e-23 1.1489724e-39)
(9.5472054e-05 -5.4385589e-05 -1.7978152e-22 3.1674213e-05 7.651274e-23 1.5030134e-39)
(0.00055067077 -0.00032720354 -3.0017509e-22 0.0001949381 1.667586e-22 1.5667245e-39)
(0.0010774489 -0.00062277971 -3.4165505e-22 0.00036209037 1.9908544e-22 3.9161838e-39)
(0.0016113424 -0.00088603646 1.1481533e-23 0.00049299517 -6.3047229e-24 4.253634e-43)
(0.0020794095 -0.0011009876 1.1002931e-23 0.00059426159 -5.2959473e-24 2.8139995e-39)
(0.0024466453 -0.0012605564 3.8947499e-22 0.00066796123 -2.0731453e-22 7.8707268e-40)
(0.0026951247 -0.0013656758 3.8554496e-23 0.00071906962 -1.9146669e-23 3.2576683e-40)
(0.002818068 -0.0014213017 -6.6609196e-22 0.00075366589 3.5650679e-22 2.09046e-40)
(0.0028189444 -0.0014336613 7.9106724e-22 0.00077697026 -4.3379609e-22 3.9462945e-40)
(0.0027101619 -0.0014091769 2.6123773e-22 0.00079299494 -1.5024543e-22 4.3123846e-40)
(0.0025112322 -0.0013540343 -7.2225507e-22 0.00080463106 4.3357614e-22 8.9326117e-40)
(0.0022464886 -0.0012740063 -2.2776804e-22 0.00081376488 1.4637018e-22 2.9135657e-40)
(0.0019423926 -0.0011744461 8.1744329e-23 0.00082141646 -5.6590034e-23 7.8810934e-40)
(0.0016247183 -0.0010603692 1.9902817e-22 0.00082789543 -1.5272906e-22 1.1389888e-40)
(0.0013160308 -0.00093654731 -7.0319045e-23 0.00083295912 6.0177963e-23 8.6829621e-41)
(0.0010338404 -0.00080755745 1.6375529e-22 0.0008359708 -1.6180535e-22 6.9368959e-41)
(0.00078966308 -0.00067776592 -1.1312766e-22 0.00083605677 1.3155895e-22 2.6783006e-41)
(0.00058901108 -0.00055121225 -2.3305921e-22 0.00083220499 3.1775039e-22 6.4620755e-40)
(0.00043227665 -0.00043131473 -8.8097874e-24 0.00082307769 9.351169e-24 5.7825896e-40)
(0.00031663065 -0.00032125667 8.156108e-23 0.00080583176 -1.7315767e-22 6.7033259e-41)
(0.0001177014 -5.6316627e-05 -1.4284595e-22 2.7471237e-05 5.2630223e-23 7.4646684e-40)
(0.00065537348 -0.00032939159 2.2023606e-22 0.00016596025 -1.0801541e-22 1.396988e-40)
(0.0012580229 -0.00061746003 1.9528944e-22 0.00030496192 -9.6252096e-23 1.6132924e-40)
(0.0018327992 -0.00086440054 4.2563125e-22 0.00041298329 -2.030977e-22 1.7392887e-39)
(0.0023015631 -0.0010574246 3.7538749e-22 0.00049644476 -1.7812634e-22 7.7383746e-40)
(0.0026306817 -0.0011923819 -6.6251913e-22 0.00055822844 3.1429383e-22 5.9178853e-40)
(0.0028092074 -0.0012728881 -3.7157914e-22 0.00060336812 1.7932832e-22 1.6851802e-40)
(0.0028412714 -0.0013058772 0 0.00063729243 0 0)
(0.0027431219 -0.0012987939 4.0781553e-22 0.0006643079 -2.206651e-22 2.1681023e-39)
(0.0025399591 -0.0012586499 -1.7795374e-22 0.00068741131 1.0438679e-22 8.2127929e-40)
(0.0022623589 -0.0011917912 -1.047592e-21 0.00070843247 6.2182092e-22 7.3376473e-40)
(0.0019425101 -0.001103946 -1.3434578e-22 0.00072819808 8.4262824e-23 1.468483e-40)
(0.0016106061 -0.0010004087 5.2087557e-22 0.00074671807 -3.8503839e-22 9.9125354e-40)
(0.0012918882 -0.00088622754 2.8581731e-23 0.00076339316 -1.8704666e-23 4.08484e-40)
(0.0010047695 -0.00076629596 -8.1237997e-24 0.000777234 7.8844202e-24 2.8870302e-43)
(0.00076022386 -0.00064531041 8.7785899e-23 0.00078708757 -1.0053306e-22 5.0820067e-41)
(0.00056234828 -0.00052761135 1.3891334e-25 0.00079183933 2.1082379e-24 5.9145652e-41)
(0.00040977165 -0.00041696287 -1.5711799e-22 0.00079051246 2.6125402e-22 1.5652691e-40)
(0.00029740284 -0.00031631808 -8.7927423e-23 0.00078262345 1.8212029e-22 1.0866499e-40)
(0.00021831458 -0.00022786892 4.5316308e-23 0.00076922919 -1.3431654e-22 6.7418297e-40)
(0.00014060066 -5.5333825e-05 1.0806115e-22 2.2163882e-05 -3.4432124e-23 2.9364921e-40)
(0.00075479073 -0.00031461493 4.5042695e-22 0.00013146506 -1.796561e-22 2.6457278e-39)
(0.0014200622 -0.00058124154 3.571155e-22 0.00023959579 -1.4703427e-22 1.6800237e-40)
(0.002016132 -0.0008023054 3.9671521e-22 0.00032409779 -1.6197026e-22 9.3078919e-40)
(0.0024635594 -0.00096875173 -6.1213842e-22 0.00039083184 2.5261521e-22 1.4669285e-39)
(0.0027347584 -0.0010794295 2.4093418e-23 0.00044297046 -7.7486509e-24 1.3953141e-40)
(0.0028303376 -0.0011398867 3.5276523e-23 0.00048496103 -1.5321148e-23 1.1777498e-42)
(0.0027687954 -0.0011578259 5.0336539e-22 0.00052103727 -2.3353277e-22 5.2506363e-40)
(0.0025807632 -0.0011406204 6.8224544e-23 0.00055417949 -3.3582006e-23 4.7459065e-42)
(0.0023035736 -0.0010947539 -1.8394814e-22 0.0005860706 1.0364531e-22 2.8381598e-40)
(0.0019759955 -0.0010259402 6.0056258e-22 0.00061727932 -3.7030969e-22 1.9807931e-39)
(0.0016335845 -0.00093943848 -4.38193e-22 0.00064746503 2.8717454e-22 1.7236682e-40)
(0.0013051768 -0.00084035238 -8.296203e-22 0.00067561755 6.4352591e-22 1.2209919e-39)
(0.0010109481 -0.00073376584 -2.7581244e-23 0.00070032987 2.5182379e-23 2.5786171e-42)
(0.00076213302 -0.00062466338 2.9881523e-22 0.00072008476 -3.3120387e-22 9.8463792e-40)
(0.00056213544 -0.0005176796 0 0.00073353095 0 0)
(0.00040851097 -0.00041677909 3.7571492e-23 0.00073968654 -5.3825014e-23 2.5605603e-41)
(0.00029523318 -0.00032499066 -1.9205029e-23 0.00073798452 4.1429589e-23 3.8059387e-41)
(0.00021465308 -0.00024428812 -1.928915e-23 0.00072877599 4.1822966e-23 1.0038392e-41)
(0.00015896617 -0.00017557045 9.4946067e-24 0.0007150904 -3.9248736e-23 6.8391091e-41)
(0.000162931 -5.1109054e-05 2.3638389e-22 1.6304723e-05 -6.0908632e-23 1.1875368e-39)
(0.00084194717 -0.00028258041 2.3334514e-23 9.5105348e-05 -7.6587906e-24 2.1992046e-42)
(0.0015514109 -0.00051553337 -6.7064028e-23 0.00017279274 2.2636322e-23 9.7395781e-42)
(0.0021470288 -0.00070418769 6.9942712e-23 0.00023530379 -2.2467024e-23 1.9234906e-40)
(0.0025529913 -0.00084315929 -4.2224199e-22 0.00028757152 1.4787565e-22 3.6104032e-40)
(0.0027527088 -0.00093352004 -2.0373416e-22 0.00033249734 7.4006021e-23 3.2700528e-41)
(0.0027620612 -0.00098123074 1.456607e-22 0.00037343566 -4.4601775e-23 1.0277318e-39)
(0.0026154963 -0.0009930917 -5.2162241e-24 0.00041311317 5.9186192e-24 8.0388168e-41)
(0.0023571376 -0.00097501968 -3.4648573e-22 0.00045300905 1.7131596e-22 8.5068334e-40)
(0.0020332736 -0.00093207332 6.0291776e-22 0.00049340243 -3.1194787e-22 2.5265589e-40)
(0.0016861615 -0.0008689487 -1.6522756e-23 0.0005335764 2.2779423e-23 4.4157596e-40)
(0.001349659 -0.0007904262 -4.8218598e-22 0.00057207116 3.4816362e-22 1.2214613e-39)
(0.0010470419 -0.00070156017 0 0.00060699939 0 0)
(0.00079096641 -0.00060754889 1.1877731e-22 0.00063639925 -1.3329823e-22 6.540025e-40)
(0.00058509574 -0.00051336422 6.1907154e-24 0.00065857432 -1.2629773e-23 3.57717e-41)
(0.00042664301 -0.0004233041 -1.4503771e-22 0.00067236638 2.2551687e-22 7.6135061e-40)
(0.00030907649 -0.00034062732 -3.2853644e-23 0.0006772865 5.8260296e-23 1.5990317e-41)
(0.00022442748 -0.00026738734 -1.0233926e-23 0.00067344633 2.7276843e-23 2.552355e-41)
(0.00016484108 -0.00020452465 -1.3305586e-23 0.00066195312 3.6809245e-23 9.9756004e-42)
(0.00012337755 -0.00015199122 2.4195722e-23 0.00064650593 -9.0262497e-23 9.5136548e-41)
(0.00018336607 -4.361155e-05 9.1084435e-23 1.0550914e-05 -1.7525527e-23 1.8806451e-40)
(0.00091037001 -0.00023479604 -6.5502242e-22 6.077169e-05 1.6481806e-22 4.0897299e-39)
(0.0016420867 -0.00042489975 -5.7284315e-23 0.00011122418 1.6293592e-23 3.8187612e-40)
(0.002215826 -0.00057825009 -1.7381561e-22 0.00015476222 5.1264928e-23 1.9205958e-39)
(0.0025648009 -0.00069229549 -1.3256442e-22 0.00019515557 3.6721955e-23 2.6624849e-41)
(0.0026876465 -0.00076870162 -7.5098328e-22 0.00023464707 2.3215071e-22 3.5340804e-40)
(0.0026173577 -0.00081183017 -3.6893205e-22 0.00027531305 1.2952591e-22 2.8412438e-40)
(0.0024034226 -0.00082588769 7.1638579e-22 0.00031838443 -2.6881969e-22 2.315037e-40)
(0.0021001433 -0.00081429597 1.2304526e-22 0.000363914 -6.291739e-23 2.9116525e-40)
(0.0017579468 -0.00078032083 -1.5828335e-22 0.00041086182 7.1555877e-23 9.9787238e-41)
(0.0014175333 -0.00072774721 7.3867518e-23 0.00045733168 -2.7250298e-23 3.7356732e-40)
(0.0011070601 -0.00066115955 -1.4558208e-23 0.00050091288 1.8760432e-23 9.4689937e-41)
(0.00084212448 -0.00058575524 0 0.00053910377 0 0)
(0.00062781307 -0.00050681666 7.9856698e-23 0.00056973855 -8.2214258e-23 2.3176289e-41)
(0.00046180286 -0.00042908068 -1.707554e-22 0.00059132577 2.2024561e-22 3.1432183e-40)
(0.00033755311 -0.00035623561 -5.5587323e-23 0.00060323237 8.4026767e-23 2.7235263e-41)
(0.00024692928 -0.00029067474 9.6908529e-23 0.00060566623 -1.9057214e-22 3.7463777e-40)
(0.0001819806 -0.0002335331 -2.0903181e-23 0.00059946307 2.7920205e-23 8.0145013e-41)
(0.00013584871 -0.00018498957 -1.1709018e-24 0.00058626997 -2.5125168e-24 8.9877301e-42)
(0.00010298757 -0.0001445367 2.2196829e-23 0.00056963325 -6.4727242e-23 8.3570801e-42)
(0.00020064065 -3.3136075e-05 6.6196858e-23 5.5761151e-06 -8.6830828e-24 1.1777368e-40)
(0.0009549139 -0.00017444671 -6.0887025e-22 3.2043926e-05 1.0966894e-22 1.8765108e-39)
(0.0016855113 -0.00031645778 -4.7559094e-22 6.0499822e-05 9.424874e-23 2.2448399e-39)
(0.0022185931 -0.00043519994 6.8383827e-22 8.8751903e-05 -1.4246555e-22 5.5151493e-40)
(0.0025014565 -0.00052932059 5.1823644e-22 0.00011945759 -1.1611167e-22 1.1556614e-40)
(0.0025504707 -0.00059887477 -3.8166151e-22 0.00015418419 8.3836373e-23 1.1928431e-39)
(0.0024151172 -0.00064461613 1.2396674e-22 0.00019395155 -4.6851027e-23 5.0476087e-40)
(0.0021566284 -0.00066692342 7.3096281e-22 0.00023880023 -2.5709942e-22 5.7091937e-40)
(0.0018346023 -0.00066633087 3.2147771e-22 0.00028759864 -1.2536439e-22 7.2599124e-41)
(0.0014985182 -0.00064451535 -3.1708088e-22 0.00033816543 1.6015733e-22 1.8642611e-40)
(0.0011835509 -0.0006047769 -4.312238e-22 0.0003876062 2.5412643e-22 2.2492999e-40)
(0.00091014017 -0.00055182332 -1.1792642e-23 0.00043280812 8.4198522e-24 2.3462566e-43)
(0.00068625781 -0.00049104922 1.2479013e-22 0.00047098407 -1.0775036e-22 3.650687e-41)
(0.00051102904 -0.00042764821 -4.6263055e-24 0.00050012225 1.4100285e-23 5.4569504e-41)
(0.00037847784 -0.00036588384 -5.1359598e-24 0.00051923395 2.2977115e-23 1.4769399e-40)
(0.0002805804 -0.00030870424 4.0540609e-24 0.0005283665 -3.0055674e-23 2.6680247e-40)
(0.00020930333 -0.0002577131 4.4632938e-23 0.00052840326 -8.6782399e-23 7.8721366e-41)
(0.00015768884 -0.00021340547 -2.5684399e-23 0.00052073073 7.3089312e-23 2.0422927e-40)
(0.0001202139 -0.00017558381 -6.541453e-23 0.00050722462 1.7744022e-22 3.9774689e-40)
(9.265835e-05 -0.00014366215 2.1598723e-23 0.0004908204 -5.1967492e-23 9.0876575e-42)
(0.00021375525 -2.0280628e-05 -1.7268344e-22 1.9745249e-06 1.4395554e-23 3.519973e-40)
(0.00097246467 -0.00010599592 -1.3757717e-22 1.1696814e-05 1.4712593e-23 3.8017339e-40)
(0.0016791854 -0.00019890213 1.0471593e-21 2.4459601e-05 -1.3252211e-22 4.6406981e-39)
(0.0021573611 -0.00028671141 7.8291666e-22 4.102306e-05 -1.1263689e-22 5.0908421e-40)
(0.0023721543 -0.00036703595 3.5241907e-22 6.3403589e-05 -5.4803675e-23 2.4961313e-40)
(0.0023576902 -0.00043604804 7.1199471e-23 9.2932616e-05 -1.442084e-23 2.4261804e-42)
(0.0021768223 -0.00048940571 -6.7052956e-22 0.00013013768 1.4720013e-22 1.0439154e-39)
(0.0018975911 -0.00052318341 0 0.00017433308 0 0)
(0.0015796797 -0.00053530038 -4.1268252e-22 0.00022349085 1.7588886e-22 8.638227e-40)
(0.0012675306 -0.0005264189 -7.1291166e-23 0.0002744859 4.5978103e-23 1.952858e-40)
(0.00098868717 -0.000499826 2.0323606e-22 0.00032364456 -1.1616389e-22 4.8754904e-41)
(0.00075585266 -0.00046051798 2.2122214e-23 0.0003674415 -2.7472719e-23 1.0741669e-40)
(0.00057089389 -0.00041397402 -9.7646573e-23 0.00040312807 9.3937603e-23 1.2562061e-40)
(0.00042917904 -0.00036508393 -7.3955581e-23 0.00042911458 9.4846816e-23 2.6789761e-40)
(0.00032318741 -0.00031750798 4.736816e-23 0.00044504118 -4.7640841e-23 3.3024311e-41)
(0.000244955 -0.00027351055 6.5842065e-23 0.00045158373 -8.3819865e-23 3.0915017e-41)
(0.00018740425 -0.00023413985 -5.893852e-23 0.00045009976 9.6018552e-23 2.8949947e-41)
(0.0001448557 -0.00019958134 -7.9476816e-23 0.00044224421 1.6752114e-22 3.329873e-40)
(0.00011304337 -0.00016957221 5.9587099e-24 0.00042982724 -1.3639431e-24 3.8847874e-41)
(8.8826831e-05 -0.00014363763 1.0953709e-23 0.00041499376 -3.5692487e-23 4.595929e-41)
(0.00022194508 -5.8510236e-06 -1.1391693e-22 1.7692029e-07 2.9026838e-24 1.7217693e-40)
(0.00096197961 -3.4623772e-05 4.8836322e-22 1.3660597e-06 -1.7445772e-23 9.5540801e-40)
(0.0016246704 -8.1479887e-05 7.4645487e-22 4.8208179e-06 -4.5725562e-23 6.9258472e-39)
(0.002039614 -0.00014412095 -8.7927772e-22 1.2678898e-05 7.5175562e-23 1.9097839e-39)
(0.0021911742 -0.00021663024 3.1913939e-22 2.7243263e-05 -3.4633318e-23 4.8673688e-41)
(0.0021285815 -0.00028953018 1.3225431e-22 5.0416794e-05 5.3074645e-25 1.7612197e-39)
(0.0019231726 -0.00035277306 3.4650276e-23 8.2948137e-05 -6.941732e-24 6.4605674e-43)
(0.0016444099 -0.00039846721 -4.9445927e-22 0.00012387947 1.1299152e-22 5.9712928e-40)
(0.0013477085 -0.0004226754 -1.1251826e-23 0.00017053156 3.8460708e-24 9.7405626e-44)
(0.001070101 -0.00042572324 1.8548254e-22 0.00021903048 -9.5126806e-23 2.272898e-40)
(0.00083125092 -0.00041120588 1.4654065e-23 0.00026517328 -1.4639426e-23 3.2392638e-41)
(0.00063746596 -0.00038437466 -6.67448e-23 0.00030531716 1.8254899e-23 4.190692e-40)
(0.00048657158 -0.00035059401 -1.496974e-22 0.00033700515 1.2037139e-22 4.8373993e-41)
(0.0003721736 -0.00031429512 -1.0205296e-24 0.00035918908 1.1415793e-23 5.4571018e-41)
(0.0002866653 -0.00027854371 5.1019559e-23 0.00037208205 -6.5843319e-23 5.3688021e-41)
(0.00022294914 -0.00024509204 3.4080331e-23 0.00037678536 -5.3072471e-23 5.19533e-41)
(0.00017517706 -0.00021468898 7.9436052e-24 0.00037485527 -2.5057011e-23 8.3790885e-41)
(0.00013889339 -0.00018745834 -5.4244e-23 0.00036794332 7.5749789e-23 6.8040745e-41)
(0.00011087996 -0.00016323468 -1.0813066e-23 0.0003575949 -6.878154e-24 2.8724568e-40)
(8.8820464e-05 -0.00014168546 3.0470231e-23 0.00034517652 -9.152711e-23 4.7487269e-40)
(1.4728839e-06 -1.8413332e-07 1.4714949e-23 2.2482086e-07 -2.9438026e-24 1.6823723e-40)
(6.9415366e-06 -2.9054725e-06 -2.099911e-23 1.4924977e-06 5.8185962e-24 1.6195597e-40)
(1.554861e-05 -6.7143649e-06 4.6639618e-23 2.975683e-06 -1.7487015e-23 9.303895e-40)
(4.9850569e-05 -1.4171708e-05 1.3024007e-22 4.2691339e-06 -2.7807094e-23 3.1286361e-39)
(0.00010941833 -2.3386519e-05 -9.3102809e-23 5.4339062e-06 1.5889926e-23 8.1377153e-40)
(0.00019560123 -3.3713087e-05 1.1741834e-22 6.4712171e-06 -1.5981146e-23 8.9914085e-40)
(0.0003112537 -4.4804731e-05 -1.6144127e-22 7.382434e-06 2.0578156e-23 9.8788757e-40)
(0.00045718034 -5.6314249e-05 -1.6662343e-22 8.1860982e-06 1.7505375e-23 1.0443157e-39)
(0.0006327574 -6.7959777e-05 2.1004892e-22 8.9021389e-06 -2.19095e-23 1.1045588e-39)
(0.00083689189 -7.9533666e-05 -1.6334854e-22 9.5460376e-06 1.6064383e-23 5.6267493e-40)
(0.001068203 -9.0879576e-05 -8.114641e-24 1.0129516e-05 1.3616979e-25 6.5362508e-42)
(0.0013250437 -0.00010187632 4.7341276e-23 1.0661531e-05 -5.0676589e-24 2.074855e-41)
(0.0016055808 -0.00011242836 -8.1168389e-24 1.1148932e-05 3.9669384e-25 3.2813678e-42)
(0.0019078702 -0.00012245993 2.5851117e-22 1.1597217e-05 -2.3343987e-23 9.8619341e-40)
(0.0022299021 -0.00013191328 2.6771482e-25 1.2011474e-05 4.888063e-25 2.1268182e-42)
(0.0025696472 -0.00014075226 -3.8336354e-22 1.2397326e-05 3.6000609e-23 2.0293129e-39)
(0.0029251177 -0.00014896532 7.1504521e-23 1.2760786e-05 -7.51016e-24 4.2944697e-41)
(0.0032943765 -0.00015655163 1.744906e-22 1.3106283e-05 -1.7260285e-23 5.1607201e-40)
(0.0036755004 -0.00016354205 -2.8544777e-22 1.3438211e-05 3.0092292e-23 1.4631171e-39)
(0.0040662868 -0.00017014717 -1.5918981e-22 1.3753342e-05 1.7792781e-23 5.4930349e-40)
(1.668135e-06 -7.7010025e-07 4.850996e-24 1.9783028e-06 -1.7968023e-24 1.6679644e-41)
(8.8491244e-06 -9.9558819e-06 -1.3299176e-22 1.3151982e-05 1.0027136e-22 5.4163229e-39)
(1.9858336e-05 -2.2604727e-05 2.6388951e-23 2.6214964e-05 -2.1815928e-23 4.8885131e-40)
(5.8658398e-05 -4.5886646e-05 1.4017151e-22 3.7612639e-05 -8.6187008e-23 2.6152509e-39)
(0.00012345032 -7.4245209e-05 1.9488195e-22 4.7855384e-05 -9.3804232e-23 2.9574362e-39)
(0.00021517101 -0.00010578376 2.3584316e-23 5.6939501e-05 -9.479161e-24 2.778409e-41)
(0.00033634955 -0.00013946688 -6.2768936e-22 6.4879146e-05 2.1812018e-22 1.4793949e-38)
(0.00048739696 -0.00017426761 -2.220858e-23 7.1838704e-05 9.2288062e-24 4.2949845e-42)
(0.0006673366 -0.0002093578 3.5635733e-22 7.7993291e-05 -1.0895103e-22 2.5262059e-39)
(0.00087475297 -0.00024412706 -8.6142701e-23 8.3479178e-05 2.3899865e-23 1.4046346e-40)
(0.0011079453 -0.00027811414 -3.2786924e-22 8.8399542e-05 9.0281282e-23 1.5588632e-39)
(0.0013649424 -0.00031095978 6.9134607e-23 9.2832644e-05 -1.7769373e-23 7.0970986e-41)
(0.0016435788 -0.00034237854 2.9225397e-22 9.683734e-05 -6.5803417e-23 1.6710989e-39)
(0.0019415626 -0.00037214083 1.2139296e-22 0.00010045952 -3.0334068e-23 1.910235e-40)
(0.0022565082 -0.00040006645 2.4400783e-22 0.00010374017 -6.5155603e-23 5.5306041e-40)
(0.0025859811 -0.00042603404 -1.9351557e-22 0.0001067234 4.8860752e-23 4.6756635e-40)
(0.0029276111 -0.00044999331 -1.8583599e-22 0.00010945715 4.6404778e-23 5.1132721e-40)
(0.0032790458 -0.00047192061 1.8897986e-22 0.00011197955 -5.3411801e-23 2.9612988e-40)
(0.0036372747 -0.00049189588 1.7387451e-22 0.00011433373 -4.7866212e-23 5.1695807e-40)
(0.0039987653 -0.00051072939 6.8118293e-23 0.00011650803 -1.7981376e-23 2.193288e-40)
(2.144114e-06 -1.9709046e-06 3.7324551e-24 5.2755776e-06 -1.8715674e-24 8.7864684e-42)
(1.3376586e-05 -2.0575144e-05 1.0101495e-22 3.5108516e-05 -1.0811976e-22 2.3083661e-39)
(2.9898294e-05 -4.5474466e-05 -2.2115729e-23 6.9929214e-05 2.8504044e-23 1.2089681e-40)
(7.8125668e-05 -8.712733e-05 -1.5231835e-22 0.000100298 1.2831234e-22 2.8624207e-39)
(0.00015374096 -0.00013662115 5.6239789e-23 0.00012749598 -4.7267523e-23 8.1303163e-41)
(0.00025685057 -0.0001908936 7.4691076e-23 0.00015145373 -6.0762531e-23 4.3109361e-41)
(0.00038932673 -0.00024823361 -9.2856195e-23 0.0001722042 4.933433e-23 2.5513797e-40)
(0.00055083537 -0.00030697741 -2.4360682e-22 0.00019018464 1.423893e-22 5.114391e-40)
(0.00073972326 -0.00036579371 1.0666119e-22 0.00020586019 -5.1978233e-23 1.426737e-40)
(0.00095394611 -0.00042369637 2.2666833e-22 0.00021959564 -9.4591087e-23 8.0969263e-40)
(0.0011911789 -0.00047993272 6.3854701e-23 0.00023166867 -4.4038205e-23 3.0620581e-41)
(0.0014488185 -0.00053390883 2.7788876e-22 0.00024228898 -9.2803502e-23 1.5020034e-39)
(0.0017240515 -0.0005851436 2.3666312e-23 0.00025161137 -8.8032825e-24 6.2333611e-42)
(0.002013909 -0.0006332378 -4.1536701e-22 0.00025975146 1.4095876e-22 2.416214e-39)
(0.0023152817 -0.00067786181 3.1006774e-23 0.00026680697 -2.0204203e-23 1.3426673e-41)
(0.0026249653 -0.00071877182 -1.9511801e-22 0.00027288048 5.4759761e-23 9.4103805e-40)
(0.002939877 -0.00075583892 -2.7718549e-22 0.00027808459 1.0946195e-22 3.8827325e-40)
(0.0032569322 -0.00078897625 4.519142e-22 0.00028253073 -1.7533234e-22 1.2879109e-39)
(0.0035712785 -0.00081827973 2.3994272e-22 0.00028640267 -9.8435861e-23 2.6261756e-40)
(0.0038773791 -0.00084549107 4.7713111e-23 0.00028979733 -2.1462224e-23 5.6441037e-42)
(3.1583102e-06 -4.0756064e-06 -5.5806401e-24 9.7135766e-06 7.0217149e-24 1.2913561e-41)
(2.1933072e-05 -3.6536735e-05 -2.3411731e-22 6.4772736e-05 2.9605294e-22 7.6613745e-39)
(4.8549262e-05 -7.8801455e-05 -1.6989913e-23 0.00012891387 2.1834147e-23 1.046773e-40)
(0.00011239428 -0.00014254065 3.9357323e-23 0.00018476994 -4.3565598e-23 6.6828674e-41)
(0.00020565008 -0.00021595322 -6.2817764e-24 0.00023454977 1.588275e-24 1.7238774e-41)
(0.00032719345 -0.00029488125 2.006433e-22 0.00027798388 -1.4718252e-22 1.2584071e-39)
(0.00047788007 -0.00037693203 2.2215744e-22 0.000315108 -1.4523622e-22 1.1433239e-39)
(0.00065626498 -0.00045986155 -6.7217842e-23 0.00034672681 3.2552219e-23 1.8008954e-40)
(0.00085967392 -0.00054189166 -2.4744764e-22 0.00037370211 1.2949636e-22 1.1455587e-39)
(0.001085098 -0.00062169224 -5.0052423e-22 0.00039672011 2.7031743e-22 2.4311887e-39)
(0.0013292519 -0.00069823168 -1.0598002e-23 0.00041631077 -5.93331e-24 5.5432409e-41)
(0.0015885678 -0.00077068124 6.3914349e-22 0.00043287756 -2.9834971e-22 3.9724828e-39)
(0.0018592495 -0.00083835106 -2.5904261e-22 0.00044671706 9.9263648e-23 1.1735825e-39)
(0.0021373268 -0.00090065273 -1.681957e-22 0.00045804755 7.3786119e-23 2.3182242e-40)
(0.0024186586 -0.00095707872 -2.0783352e-23 0.00046704446 2.2710035e-23 4.9992661e-41)
(0.0026989861 -0.0010072228 4.0087256e-22 0.00047387991 -1.7573137e-22 9.5175293e-40)
(0.0029742776 -0.0010508381 -2.281549e-22 0.00047873855 1.1374577e-22 6.4569695e-41)
(0.0032406042 -0.0010877772 -5.2443133e-22 0.00048185726 2.2056831e-22 2.0484625e-39)
(0.0034909953 -0.0011181606 3.5422741e-22 0.00048381842 -1.5361769e-22 1.0302559e-39)
(0.0037176984 -0.0011448206 3.0532799e-22 0.00048526511 -1.2217938e-22 9.575318e-40)
(5.0508783e-06 -7.2583364e-06 2.5067281e-23 1.480601e-05 -2.4360081e-23 1.6495857e-40)
(3.6400926e-05 -5.8883513e-05 8.0520233e-24 9.8875092e-05 -2.0209672e-24 7.4713986e-41)
(7.9623013e-05 -0.00012460488 -3.2336496e-22 0.00019647206 4.6271444e-22 6.289011e-39)
(0.00016681368 -0.00021470234 -1.8574794e-22 0.0002811969 1.9724502e-22 1.9440331e-39)
(0.00028580337 -0.00031498251 1.2378585e-22 0.00035618386 -9.8569358e-23 1.1747261e-39)
(0.0004337905 -0.00042018815 1.5451767e-22 0.00042079975 -1.2450318e-22 5.5360515e-40)
(0.00061016431 -0.00052720865 -2.0095028e-22 0.000475071 1.3129056e-22 1.2950185e-39)
(0.00081193681 -0.0006332837 -3.067488e-22 0.00052024223 1.7616653e-22 2.8417722e-39)
(0.0010350029 -0.00073625921 4.5574917e-22 0.00055765952 -2.7235629e-22 2.917101e-39)
(0.0012749894 -0.00083451026 1.3030063e-22 0.00058841859 -5.2828215e-23 6.7872269e-40)
(0.0015272616 -0.00092675982 -4.1497261e-22 0.0006133878 2.7409163e-22 2.2753541e-40)
(0.0017869204 -0.0010119697 1.8127765e-22 0.00063324444 -8.2554137e-23 5.2277244e-40)
(0.0020488753 -0.0010892698 0 0.00064850076 0 0)
(0.002307905 -0.0011579103 1.7790035e-22 0.00065953918 -8.6716831e-23 2.0482874e-40)
(0.0025586787 -0.0012172367 -1.3385331e-22 0.00066666035 6.3615307e-23 1.0939881e-40)
(0.0027958439 -0.0012667117 -2.0585712e-22 0.00067013579 1.0258852e-22 1.3311158e-40)
(0.0030145442 -0.0013060058 7.6651713e-23 0.00067022394 -6.175384e-23 1.8663597e-40)
(0.0032104143 -0.0013350041 -6.2221866e-23 0.00066729631 3.6908296e-23 6.7967904e-42)
(0.0033749185 -0.0013539982 2.9994849e-22 0.0006626477 -1.2968325e-22 1.1081237e-39)
(0.0034978913 -0.0013668002 -2.4274561e-22 0.00065836482 1.1832661e-22 6.5233195e-41)
(8.2162515e-06 -1.1575231e-05 2.4037602e-23 2.0072161e-05 -2.0209975e-23 1.3245881e-40)
(5.8910056e-05 -8.7821676e-05 1.1616566e-22 0.00013398387 -1.5461259e-22 4.9601825e-40)
(0.00012733728 -0.00018313365 -1.5595031e-22 0.00026543672 2.0680203e-22 1.1797273e-39)
(0.00024702541 -0.0003035651 -2.5675114e-22 0.0003789378 2.8856676e-22 9.8942058e-40)
(0.00040064547 -0.00043297341 -7.6660468e-23 0.00047844015 1.1149734e-22 7.8053969e-40)
(0.00058312685 -0.00056492017 -2.3259848e-22 0.00056284099 2.0412916e-22 4.858195e-40)
(0.00079180471 -0.00069553351 -1.0776809e-22 0.00063219937 6.6369634e-23 5.6058492e-40)
(0.0010216331 -0.00082162676 1.872429e-22 0.00068827506 -1.1265547e-22 1.0341036e-39)
(0.0012666076 -0.00094078146 4.4903403e-22 0.00073298399 -2.6766548e-22 3.5412356e-39)
(0.0015205582 -0.001051184 1.38833e-22 0.00076793118 -8.540691e-23 1.4861001e-40)
(0.0017771533 -0.0011514255 -1.3192904e-22 0.00079442876 7.0078116e-23 2.3562762e-40)
(0.0020299165 -0.0012403801 -2.4132321e-23 0.00081353526 -5.4298059e-24 2.0515067e-40)
(0.0022723506 -0.0013171316 -6.3246889e-22 0.00082608363 3.4570933e-22 1.9562696e-39)
(0.0024980607 -0.0013809254 -1.9678017e-22 0.00083272043 1.0280453e-22 2.0233413e-40)
(0.0027008406 -0.001431142 3.3090457e-22 0.00083395908 -1.9062935e-22 9.6973278e-41)
(0.0028748224 -0.001467309 -3.3047632e-22 0.00083023285 1.7799345e-22 2.0088248e-40)
(0.0030151662 -0.0014891942 -1.1680949e-22 0.00082187916 5.7392887e-23 6.4035367e-41)
(0.0031183229 -0.0014969044 2.625565e-22 0.00080931248 -1.1091937e-22 9.9408637e-40)
(0.0031760084 -0.0014911732 4.0008398e-22 0.00079463584 -1.9918264e-22 7.5527991e-40)
(0.0031758479 -0.0014764821 4.8640351e-23 0.00078249641 -2.2683484e-23 1.4691747e-41)
(1.3074938e-05 -1.6968358e-05 -6.7789039e-23 2.5075866e-05 5.5035362e-23 7.8367547e-40)
(9.1587781e-05 -0.00012270019 -7.4985894e-23 0.00016684673 7.6068473e-23 6.246476e-40)
(0.00019568578 -0.0002527424 1.9153971e-22 0.00032897086 -2.4154921e-22 2.9035724e-40)
(0.00035790351 -0.00040620631 2.9137808e-22 0.00046782588 -3.0148934e-22 1.3112742e-39)
(0.0005549004 -0.00056537733 3.8066891e-24 0.00058803701 -3.4245501e-24 2.6016451e-43)
(0.00077855599 -0.00072253643 -7.9248301e-22 0.00068806082 6.5315585e-22 7.6540709e-39)
(0.0010234453 -0.00087306241 -3.1208759e-22 0.00076812454 2.6633773e-22 1.1075198e-40)
(0.0012819213 -0.0010135051 2.4173701e-22 0.00083060898 -1.6290732e-22 8.3969989e-40)
(0.0015456762 -0.001141391 2.7812272e-22 0.00087809568 -1.864671e-22 5.1385168e-40)
(0.0018064858 -0.0012549451 -2.7228632e-22 0.00091280348 1.5160121e-22 1.4095113e-39)
(0.0020562289 -0.0013528693 -8.049619e-22 0.00093660079 5.0663422e-22 2.0584043e-39)
(0.0022869981 -0.0014342186 5.3056014e-22 0.00095104013 -3.2056695e-22 8.4635512e-40)
(0.0024913239 -0.0014983279 3.1592945e-22 0.00095738687 -1.6464097e-22 1.0122517e-39)
(0.0026624078 -0.0015447666 -4.3967617e-22 0.00095665943 2.4193851e-22 8.3620479e-40)
(0.002794316 -0.001573309 1.9383646e-22 0.00094967952 -1.1135784e-22 5.6286511e-41)
(0.0028821938 -0.0015839229 3.2236492e-22 0.00093711195 -1.656166e-22 6.2264194e-40)
(0.0029230256 -0.0015768098 1.2318673e-22 0.00091937994 -6.9046449e-23 2.1318756e-41)
(0.0029161751 -0.001552538 -2.1153423e-22 0.00089676177 1.2956589e-22 2.7268067e-41)
(0.0028565466 -0.0015124818 -4.9592145e-23 0.00087183603 1.6397611e-23 1.5404017e-40)
(0.0027310096 -0.0014612566 2.7838561e-22 0.00085252798 -1.5967195e-22 6.3423382e-41)
(2.0042127e-05 -2.3266846e-05 -1.9693456e-24 2.9429833e-05 -2.1837682e-24 1.4716851e-41)