/*--------------------------------*- C++ -*----------------------------------*\
| =========                 |                                                 |
| \\      /  F ield         | OpenFOAM: The Open Source CFD Toolbox           |
|  \\    /   O peration     | Version:  4.1                                   |
|   \\  /    A nd           | Web:      www.OpenFOAM.org                      |
|    \\/     M anipulation  |                                                 |
\*---------------------------------------------------------------------------*/
FoamFile
{
    version     2.0;
    format      ascii;
    class       volScalarField;
    location    "3";
    object      p;
}
// * * * * * * * * * * * * * * * * * * * * * * * * * * * * * * * * * * * * * //

dimensions      [0 2 -2 0 0 0 0];

internalField   nonuniform List<scalar> 
1000
(
1.5221603
1.505326
1.4893391
1.4737322
1.4582797
1.4429154
1.4276086
1.4123325
1.3970682
1.3818062
1.3665432
1.3512785
1.3360123
1.320745
1.305477
1.2902086
1.2749401
1.2596714
1.2444027
1.229134
1.2138653
1.1985965
1.1833278
1.168059
1.1527903
1.1375215
1.1222528
1.106984
1.0917153
1.0764466
1.0611778
1.0459091
1.0306403
1.0153716
1.0001028
0.98483408
0.96956533
0.95429659
0.93902784
0.9237591
0.90849035
0.8932216
0.87795286
0.86268411
0.84741537
0.83214662
0.81687788
0.80160913
0.78634038
0.77107164
0.75580289
0.74053415
0.7252654
0.70999666
0.69472791
0.67945916
0.66419042
0.64892167
0.63365293
0.61838418
0.60311544
0.58784669
0.57257794
0.5573092
0.54204045
0.52677171
0.51150296
0.49623422
0.48096547
0.46569673
0.45042798
0.43515923
0.41989049
0.40462174
0.389353
0.37408425
0.35881551
0.34354676
0.32827801
0.31300927
0.29774052
0.28247178
0.26720303
0.25193429
0.23666554
0.22139679
0.20612805
0.1908593
0.17559056
0.16032181
0.14505307
0.12978432
0.11451557
0.099246829
0.083978084
0.068709338
0.053440593
0.03817185
0.02290311
0.0076343703
1.5217776
1.5049752
1.4893015
1.4738367
1.4583751
1.4429732
1.427643
1.4123538
1.3970805
1.3818125
1.3665462
1.3512798
1.3360129
1.3207452
1.3054771
1.2902087
1.2749401
1.2596714
1.2444027
1.229134
1.2138653
1.1985965
1.1833278
1.168059
1.1527903
1.1375215
1.1222528
1.106984
1.0917153
1.0764466
1.0611778
1.0459091
1.0306403
1.0153716
1.0001028
0.98483408
0.96956533
0.95429659
0.93902784
0.9237591
0.90849035
0.8932216
0.87795286
0.86268411
0.84741537
0.83214662
0.81687788
0.80160913
0.78634038
0.77107164
0.75580289
0.74053415
0.7252654
0.70999666
0.69472791
0.67945916
0.66419042
0.64892167
0.63365293
0.61838418
0.60311544
0.58784669
0.57257794
0.5573092
0.54204045
0.52677171
0.51150296
0.49623422
0.48096547
0.46569673
0.45042798
0.43515923
0.41989049
0.40462174
0.389353
0.37408425
0.35881551
0.34354676
0.32827801
0.31300927
0.29774052
0.28247178
0.26720303
0.25193429
0.23666554
0.22139679
0.20612805
0.1908593
0.17559056
0.16032181
0.14505307
0.12978432
0.11451557
0.099246829
0.083978084
0.068709338
0.053440592
0.038171848
0.022903104
0.0076343667
1.5212236
1.5043916
1.4891105
1.4738683
1.4584355
1.4430118
1.4276691
1.4123741
1.3970947
1.381821
1.3665508
1.3512824
1.3360142
1.3207459
1.3054774
1.2902089
1.2749402
1.2596715
1.2444028
1.229134
1.2138653
1.1985965
1.1833278
1.168059
1.1527903
1.1375215
1.1222528
1.106984
1.0917153
1.0764466
1.0611778
1.0459091
1.0306403
1.0153716
1.0001028
0.98483408
0.96956533
0.95429659
0.93902784
0.9237591
0.90849035
0.8932216
0.87795286
0.86268411
0.84741537
0.83214662
0.81687788
0.80160913
0.78634038
0.77107164
0.75580289
0.74053415
0.7252654
0.70999666
0.69472791
0.67945916
0.66419042
0.64892167
0.63365293
0.61838418
0.60311544
0.58784669
0.57257794
0.5573092
0.54204045
0.52677171
0.51150296
0.49623422
0.48096547
0.46569673
0.45042798
0.43515923
0.41989049
0.40462174
0.389353
0.37408425
0.35881551
0.34354676
0.32827801
0.31300927
0.29774052
0.28247178
0.26720303
0.25193429
0.23666554
0.22139679
0.20612805
0.1908593
0.17559056
0.16032181
0.14505307
0.12978432
0.11451557
0.099246829
0.083978083
0.068709337
0.053440591
0.038171846
0.022903101
0.0076343642
1.5207826
1.5038946
1.4889167
1.4738744
1.458482
1.4430464
1.4276952
1.4123959
1.3971109
1.3818312
1.3665566
1.3512856
1.336016
1.3207468
1.3054779
1.2902091
1.2749403
1.2596715
1.2444028
1.229134
1.2138653
1.1985965
1.1833278
1.168059
1.1527903
1.1375215
1.1222528
1.106984
1.0917153
1.0764466
1.0611778
1.0459091
1.0306403
1.0153716
1.0001028
0.98483408
0.96956533
0.95429659
0.93902784
0.9237591
0.90849035
0.8932216
0.87795286
0.86268411
0.84741537
0.83214662
0.81687788
0.80160913
0.78634038
0.77107164
0.75580289
0.74053415
0.7252654
0.70999666
0.69472791
0.67945916
0.66419042
0.64892167
0.63365293
0.61838418
0.60311544
0.58784669
0.57257794
0.5573092
0.54204045
0.52677171
0.51150296
0.49623422
0.48096547
0.46569673
0.45042798
0.43515923
0.41989049
0.40462174
0.389353
0.37408425
0.35881551
0.34354676
0.32827801
0.31300927
0.29774052
0.28247178
0.26720303
0.25193429
0.23666554
0.22139679
0.20612805
0.1908593
0.17559056
0.16032181
0.14505307
0.12978432
0.11451557
0.099246829
0.083978083
0.068709337
0.05344059
0.038171845
0.0229031
0.0076343626
1.5205579
1.5036297
1.4888058
1.4738742
1.458508
1.4430677
1.4277119
1.41241
1.3971215
1.381838
1.3665606
1.3512877
1.3360171
1.3207474
1.3054782
1.2902092
1.2749404
1.2596716
1.2444028
1.229134
1.2138653
1.1985965
1.1833278
1.168059
1.1527903
1.1375215
1.1222528
1.106984
1.0917153
1.0764466
1.0611778
1.0459091
1.0306403
1.0153716
1.0001028
0.98483408
0.96956533
0.95429659
0.93902784
0.9237591
0.90849035
0.8932216
0.87795286
0.86268411
0.84741537
0.83214662
0.81687788
0.80160913
0.78634038
0.77107164
0.75580289
0.74053415
0.7252654
0.70999666
0.69472791
0.67945916
0.66419042
0.64892167
0.63365293
0.61838418
0.60311544
0.58784669
0.57257794
0.5573092
0.54204045
0.52677171
0.51150296
0.49623422
0.48096547
0.46569673
0.45042798
0.43515923
0.41989049
0.40462174
0.389353
0.37408425
0.35881551
0.34354676
0.32827801
0.31300927
0.29774052
0.28247178
0.26720303
0.25193429
0.23666554
0.22139679
0.20612805
0.1908593
0.17559056
0.16032181
0.14505307
0.12978432
0.11451557
0.099246829
0.083978082
0.068709336
0.05344059
0.038171844
0.022903099
0.0076343619
1.520558
1.5036297
1.4888059
1.4738742
1.458508
1.4430677
1.4277119
1.41241
1.3971215
1.381838
1.3665606
1.3512877
1.3360171
1.3207474
1.3054782
1.2902092
1.2749404
1.2596716
1.2444028
1.229134
1.2138653
1.1985965
1.1833278
1.168059
1.1527903
1.1375215
1.1222528
1.106984
1.0917153
1.0764466
1.0611778
1.0459091
1.0306403
1.0153716
1.0001028
0.98483408
0.96956533
0.95429659
0.93902784
0.9237591
0.90849035
0.8932216
0.87795286
0.86268411
0.84741537
0.83214662
0.81687788
0.80160913
0.78634038
0.77107164
0.75580289
0.74053415
0.7252654
0.70999666
0.69472791
0.67945916
0.66419042
0.64892167
0.63365293
0.61838418
0.60311544
0.58784669
0.57257794
0.5573092
0.54204045
0.52677171
0.51150296
0.49623422
0.48096547
0.46569673
0.45042798
0.43515923
0.41989049
0.40462174
0.389353
0.37408425
0.35881551
0.34354676
0.32827801
0.31300927
0.29774052
0.28247178
0.26720303
0.25193429
0.23666554
0.22139679
0.20612805
0.1908593
0.17559056
0.16032181
0.14505307
0.12978432
0.11451557
0.099246828
0.083978082
0.068709336
0.05344059
0.038171845
0.022903099
0.007634362
1.5207826
1.5038946
1.4889167
1.4738744
1.458482
1.4430465
1.4276952
1.4123959
1.3971109
1.3818312
1.3665566
1.3512856
1.3360159
1.3207468
1.3054779
1.2902091
1.2749403
1.2596715
1.2444028
1.229134
1.2138653
1.1985965
1.1833278
1.168059
1.1527903
1.1375215
1.1222528
1.106984
1.0917153
1.0764466
1.0611778
1.0459091
1.0306403
1.0153716
1.0001028
0.98483408
0.96956533
0.95429659
0.93902784
0.9237591
0.90849035
0.8932216
0.87795286
0.86268411
0.84741537
0.83214662
0.81687788
0.80160913
0.78634038
0.77107164
0.75580289
0.74053415
0.7252654
0.70999666
0.69472791
0.67945916
0.66419042
0.64892167
0.63365293
0.61838418
0.60311544
0.58784669
0.57257794
0.5573092
0.54204045
0.52677171
0.51150296
0.49623422
0.48096547
0.46569673
0.45042798
0.43515923
0.41989049
0.40462174
0.389353
0.37408425
0.35881551
0.34354676
0.32827801
0.31300927
0.29774052
0.28247178
0.26720303
0.25193429
0.23666554
0.22139679
0.20612805
0.1908593
0.17559056
0.16032181
0.14505307
0.12978432
0.11451557
0.099246828
0.083978082
0.068709336
0.05344059
0.038171845
0.0229031
0.0076343628
1.5212236
1.5043916
1.4891105
1.4738683
1.4584356
1.4430118
1.4276691
1.4123741
1.3970947
1.381821
1.3665508
1.3512823
1.3360142
1.3207459
1.3054774
1.2902088
1.2749402
1.2596715
1.2444027
1.229134
1.2138653
1.1985965
1.1833278
1.168059
1.1527903
1.1375215
1.1222528
1.106984
1.0917153
1.0764466
1.0611778
1.0459091
1.0306403
1.0153716
1.0001028
0.98483408
0.96956533
0.95429659
0.93902784
0.9237591
0.90849035
0.8932216
0.87795286
0.86268411
0.84741537
0.83214662
0.81687788
0.80160913
0.78634038
0.77107164
0.75580289
0.74053415
0.7252654
0.70999666
0.69472791
0.67945916
0.66419042
0.64892167
0.63365293
0.61838418
0.60311544
0.58784669
0.57257794
0.5573092
0.54204045
0.52677171
0.51150296
0.49623422
0.48096547
0.46569673
0.45042798
0.43515923
0.41989049
0.40462174
0.389353
0.37408425
0.35881551
0.34354676
0.32827801
0.31300927
0.29774052
0.28247178
0.26720303
0.25193429
0.23666554
0.22139679
0.20612805
0.1908593
0.17559056
0.16032181
0.14505307
0.12978432
0.11451557
0.099246828
0.083978083
0.068709337
0.053440591
0.038171847
0.022903102
0.0076343644
1.5217776
1.5049753
1.4893015
1.4738367
1.4583751
1.4429732
1.427643
1.4123538
1.3970805
1.3818125
1.3665462
1.3512798
1.3360129
1.3207452
1.3054771
1.2902087
1.2749401
1.2596714
1.2444027
1.229134
1.2138653
1.1985965
1.1833278
1.168059
1.1527903
1.1375215
1.1222528
1.106984
1.0917153
1.0764466
1.0611778
1.0459091
1.0306403
1.0153716
1.0001028
0.98483408
0.96956533
0.95429659
0.93902784
0.9237591
0.90849035
0.8932216
0.87795286
0.86268411
0.84741537
0.83214662
0.81687788
0.80160913
0.78634038
0.77107164
0.75580289
0.74053415
0.7252654
0.70999666
0.69472791
0.67945916
0.66419042
0.64892167
0.63365293
0.61838418
0.60311544
0.58784669
0.57257794
0.5573092
0.54204045
0.52677171
0.51150296
0.49623422
0.48096547
0.46569673
0.45042798
0.43515923
0.41989049
0.40462174
0.389353
0.37408425
0.35881551
0.34354676
0.32827801
0.31300927
0.29774052
0.28247178
0.26720303
0.25193429
0.23666554
0.22139679
0.20612805
0.1908593
0.17559056
0.16032181
0.14505307
0.12978432
0.11451557
0.099246829
0.083978083
0.068709337
0.053440592
0.038171848
0.022903105
0.0076343669
1.5221603
1.505326
1.4893391
1.4737322
1.4582797
1.4429154
1.4276086
1.4123325
1.3970682
1.3818062
1.3665432
1.3512785
1.3360123
1.320745
1.305477
1.2902086
1.2749401
1.2596714
1.2444027
1.229134
1.2138653
1.1985965
1.1833278
1.168059
1.1527903
1.1375215
1.1222528
1.106984
1.0917153
1.0764466
1.0611778
1.0459091
1.0306403
1.0153716
1.0001028
0.98483408
0.96956533
0.95429659
0.93902784
0.9237591
0.90849035
0.8932216
0.87795286
0.86268411
0.84741537
0.83214662
0.81687788
0.80160913
0.78634038
0.77107164
0.75580289
0.74053415
0.7252654
0.70999666
0.69472791
0.67945916
0.66419042
0.64892167
0.63365293
0.61838418
0.60311544
0.58784669
0.57257794
0.5573092
0.54204045
0.52677171
0.51150296
0.49623422
0.48096547
0.46569673
0.45042798
0.43515923
0.41989049
0.40462174
0.389353
0.37408425
0.35881551
0.34354676
0.32827801
0.31300927
0.29774052
0.28247178
0.26720303
0.25193429
0.23666554
0.22139679
0.20612805
0.1908593
0.17559056
0.16032181
0.14505307
0.12978432
0.11451557
0.099246829
0.083978083
0.068709338
0.053440593
0.038171851
0.02290311
0.0076343706
)
;

boundaryField
{
    top
    {
        type            zeroGradient;
    }
    inlet
    {
        type            fixedValue;
        value           uniform 1.53103;
    }
    outlet
    {
        type            fixedValue;
        value           uniform 0;
    }
    bottom
    {
        type            zeroGradient;
    }
    back
    {
        type            empty;
    }
    front
    {
        type            empty;
    }
}


// ************************************************************************* //
