/*--------------------------------*- C++ -*----------------------------------*\
| =========                 |                                                 |
| \\      /  F ield         | OpenFOAM: The Open Source CFD Toolbox           |
|  \\    /   O peration     | Version:  4.1                                   |
|   \\  /    A nd           | Web:      www.OpenFOAM.org                      |
|    \\/     M anipulation  |                                                 |
\*---------------------------------------------------------------------------*/
FoamFile
{
    version     2.0;
    format      ascii;
    class       surfaceScalarField;
    location    "3";
    object      phi;
}
// * * * * * * * * * * * * * * * * * * * * * * * * * * * * * * * * * * * * * //

dimensions      [0 3 -1 0 0 0 0];

internalField   nonuniform List<scalar> 
1890
(
0.0014124112
6.5211572e-06
0.0013965073
1.590293e-05
0.0013825989
1.3908559e-05
0.0013737535
8.8465277e-06
0.0013686403
5.1145977e-06
0.0013657137
2.9278573e-06
0.0013641332
1.581569e-06
0.0013633935
7.4089735e-07
0.0013631139
2.8067131e-07
0.0013630412
7.3828954e-08
0.0013630429
-8.6417017e-10
0.0013630639
-2.0217711e-08
0.0013630834
-1.9033869e-08
0.0013630971
-1.3265577e-08
0.0013631054
-7.9898869e-09
0.00136311
-4.4309471e-09
0.0013631125
-2.355906e-09
0.0013631138
-1.2276809e-09
0.0013631145
-6.3578496e-10
0.0013631149
-3.2597229e-10
0.0013631151
-1.6512688e-10
0.0013631152
-7.8872259e-11
0.0013631152
-3.4608215e-11
0.0013631153
-1.0683205e-11
0.0013631153
-3.3750693e-13
0.0013631153
6.2561359e-12
0.0013631153
6.7478639e-12
0.0013631153
7.5211951e-12
0.0013631153
5.6824962e-12
0.0013631153
5.7220607e-12
0.0013631153
3.6455008e-12
0.0013631153
3.7584944e-12
0.0013631153
2.0370125e-12
0.0013631153
2.4462899e-12
0.0013631153
1.0219534e-12
0.0013631153
1.5454987e-12
0.0013631153
4.2245273e-13
0.0013631153
1.0714974e-12
0.0013631153
1.1377212e-13
0.0013631153
7.2271843e-13
0.0013631153
-9.7478884e-14
0.0013631153
6.1183553e-13
0.0013631153
-2.2439953e-13
0.0013631153
4.8079684e-13
0.0013631153
-3.0390876e-13
0.0013631153
4.8138136e-13
0.0013631153
-3.3315485e-13
0.0013631153
4.0437849e-13
0.0013631153
-3.6443759e-13
0.0013631153
4.3774825e-13
0.0013631153
-3.6862837e-13
0.0013631153
3.7897041e-13
0.0013631153
-3.8439735e-13
0.0013631153
4.2307068e-13
0.0013631153
-3.8009984e-13
0.0013631153
3.7016954e-13
0.0013631153
-3.9113785e-13
0.0013631153
4.1796301e-13
0.0013631153
-3.8404751e-13
0.0013631153
3.6715933e-13
0.0013631153
-3.9340977e-13
0.0013631153
4.1623616e-13
0.0013631153
-3.8538611e-13
0.0013631153
3.6610658e-13
0.0013631153
-3.9423525e-13
0.0013631153
4.1557636e-13
0.0013631153
-3.859278e-13
0.0013631153
3.6567224e-13
0.0013631153
-3.9457129e-13
0.0013631153
4.1535362e-13
0.0013631153
-3.8603196e-13
0.0013631153
3.6571181e-13
0.0013631153
-3.9434048e-13
0.0013631153
4.1579301e-13
0.0013631153
-3.8532106e-13
0.0013631153
3.6679728e-13
0.0013631153
-3.9276857e-13
0.0013631153
4.1806114e-13
0.0013631153
-3.8192923e-13
0.0013631153
3.7205527e-13
0.0013631153
-3.8446643e-13
0.0013631153
4.3113859e-13
0.0013631153
-3.6080377e-13
0.0013631153
4.0478265e-13
0.0013631153
-3.3322471e-13
0.0013631153
5.0742262e-13
0.0013631153
-2.4112128e-13
0.0013631153
5.7812568e-13
0.0013631153
-4.0641877e-14
0.0013631153
9.2567875e-13
0.0013631153
3.8252817e-13
0.0013631153
1.5980751e-12
0.0013631153
1.5921873e-12
0.0013631153
4.0120158e-12
0.0013631153
7.700359e-12
0.0013631153
1.0559404e-11
0.0013631152
1.8330484e-11
0.0013631152
2.1592043e-11
0.0013631152
6.1124374e-12
-3.4086589e-11
0.0029745765
7.6618443e-06
0.0029677397
2.273725e-05
0.0029582104
2.3436466e-05
0.0029497258
1.7331596e-05
0.002943438
1.1403599e-05
0.0029391881
7.1785861e-06
0.0029365555
4.2147895e-06
0.0029350912
2.2060325e-06
0.0029343694
1.0034209e-06
0.002934057
3.8724144e-07
0.0029339419
1.1505551e-07
0.0029339093
1.3145415e-08
0.0029339067
-1.5912457e-08
0.0029339117
-1.7900407e-08
0.0029339168
-1.2719702e-08
0.0029339202
-7.6269528e-09
0.0029339222
-4.2216348e-09
0.0029339233
-2.2618176e-09
0.002933924
-1.2024843e-09
0.0029339244
-6.4425763e-10
0.0029339246
-3.4592221e-10
0.0029339247
-1.8418732e-10
0.0029339248
-9.2983946e-11
0.0029339249
-4.3087449e-11
0.0029339249
-1.4717053e-11
0.0029339249
-4.8395379e-13
0.0029339249
6.4913926e-12
0.0029339249
8.1685561e-12
0.0029339249
9.0960013e-12
0.0029339249
7.5895232e-12
0.0029339249
7.0470063e-12
0.0029339249
5.1062434e-12
0.0029339249
4.6660939e-12
0.0029339249
3.116313e-12
0.0029339249
2.920566e-12
0.0029339249
1.7190681e-12
0.0029339249
1.7976471e-12
0.0029339249
9.6923879e-13
0.0029339249
1.1138726e-12
0.0029339249
4.6752125e-13
0.0029339249
6.9020432e-13
0.0029339249
2.6469147e-13
0.0029339249
4.3867945e-13
0.0029339249
8.2712781e-14
0.0029339249
2.8583402e-13
0.0029339249
4.7359849e-14
0.0029339249
2.086721e-13
0.0029339249
-4.9162208e-14
0.0029339249
1.5161335e-13
0.0029339249
-2.3612611e-14
0.0029339249
1.2889301e-13
0.0029339249
-9.1150444e-14
0.0029339249
1.1150329e-13
0.0029339249
-5.0740419e-14
0.0029339249
1.0709719e-13
0.0029339249
-1.0832754e-13
0.0029339249
9.8084025e-14
0.0029339249
-6.1176851e-14
0.0029339249
9.900364e-14
0.0029339249
-1.1458506e-13
0.0029339249
9.3247037e-14
0.0029339249
-6.4917096e-14
0.0029339249
9.6093741e-14
0.0029339249
-1.1686961e-13
0.0029339249
9.1434596e-14
0.0029339249
-6.6363589e-14
0.0029339249
9.4929388e-14
0.0029339249
-1.1780097e-13
0.0029339249
9.0714522e-14
0.0029339249
-6.6878402e-14
0.0029339249
9.464322e-14
0.0029339249
-1.178231e-13
0.0029339249
9.1015434e-14
0.0029339249
-6.6180423e-14
0.0029339249
9.585242e-14
0.0029339249
-1.1591744e-13
0.0029339249
9.3918926e-14
0.0029339249
-6.1798367e-14
0.0029339249
1.026104e-13
0.0029339249
-1.052046e-13
0.0029339249
1.1098759e-13
0.0029339249
-3.5022917e-14
0.0029339249
1.4975309e-13
0.0029339249
-4.1190243e-14
0.0029339249
2.4448249e-13
0.0029339249
1.2168857e-13
0.0029339249
4.603253e-13
0.0029339249
2.8749068e-13
0.0029339249
8.9140026e-13
0.0029339249
8.1028959e-13
0.0029339249
1.7249255e-12
0.0029339249
1.7413119e-12
0.0029339249
3.8968136e-12
0.0029339249
4.9801516e-12
0.0029339249
1.1348906e-11
0.0029339249
8.6673574e-12
0.0029339249
1.2041885e-11
0.0029339249
5.3113406e-12
0.002933925
-6.3879933e-11
-1.376586e-10
0.0037539947
5.3259871e-06
0.0037582573
1.8471607e-05
0.0037604525
2.1240902e-05
0.0037604954
1.7289967e-05
0.0037595913
1.2308891e-05
0.0037585291
8.2413631e-06
0.00375763
5.1141687e-06
0.0037569889
2.8475985e-06
0.0037565918
1.4013165e-06
0.0037563747
6.0504757e-07
0.0037562686
2.2193029e-07
0.0037562221
6.0270359e-08
0.0037562028
3.93993e-09
0.0037561962
-1.0922745e-08
0.0037561941
-1.0284658e-08
0.0037561935
-6.7461693e-09
0.0037561932
-3.8518476e-09
0.0037561932
-2.073454e-09
0.0037561932
-1.1016052e-09
0.0037561932
-5.9351353e-10
0.0037561932
-3.2700684e-10
0.0037561932
-1.8052494e-10
0.0037561933
-9.7544648e-11
0.0037561933
-4.8099279e-11
0.0037561933
-2.0265443e-11
0.0037561933
-3.9262422e-12
0.0037561934
3.6149954e-12
0.0037561934
7.5590922e-12
0.0037561934
7.9410023e-12
0.0037561934
8.0904725e-12
0.0037561934
6.576749e-12
0.0037561934
5.9713755e-12
0.0037561934
4.3870027e-12
0.0037561934
3.8953429e-12
0.0037561934
2.6750186e-12
0.0037561934
2.4142869e-12
0.0037561934
1.5724236e-12
0.0037561934
1.4641491e-12
0.0037561934
9.1669281e-13
0.0037561934
8.607868e-13
0.0037561934
5.4232029e-13
0.0037561934
4.9013739e-13
0.0037561934
3.4237465e-13
0.0037561934
2.3549925e-13
0.0037561934
2.2911733e-13
0.0037561934
1.1579263e-13
0.0037561934
1.6645603e-13
0.0037561934
4.4584487e-14
0.0037561934
1.134238e-13
0.0037561934
1.2197921e-14
0.0037561934
8.8186034e-14
0.0037561934
-1.3873764e-14
0.0037561934
6.8331935e-14
0.0037561934
-2.2187691e-14
0.0037561934
6.1589052e-14
0.0037561934
-3.4634987e-14
0.0037561934
5.2141971e-14
0.0037561934
-3.4802015e-14
0.0037561934
5.1754864e-14
0.0037561934
-4.2304728e-14
0.0037561934
4.6163017e-14
0.0037561934
-3.9468189e-14
0.0037561934
4.8095553e-14
0.0037561934
-4.5205223e-14
0.0037561934
4.3855144e-14
0.0037561934
-4.1317989e-14
0.0037561934
4.6605416e-14
0.0037561934
-4.6410566e-14
0.0037561934
4.2899493e-14
0.0037561934
-4.2044276e-14
0.0037561934
4.6124191e-14
0.0037561934
-4.660137e-14
0.0037561934
4.3063981e-14
0.0037561934
-4.1404663e-14
0.0037561934
4.7408054e-14
0.0037561934
-4.4395371e-14
0.0037561934
4.6612117e-14
0.0037561934
-3.5816971e-14
0.0037561934
5.632371e-14
0.0037561934
-2.9890985e-14
0.0037561934
7.0497544e-14
0.0037561934
3.9050664e-15
0.0037561934
1.2254869e-13
0.0037561934
7.8091063e-14
0.0037561934
2.210676e-13
0.0037561934
2.8058529e-13
0.0037561934
4.1768641e-13
0.0037561934
7.0795505e-13
0.0037561934
8.4430408e-13
0.0037561934
1.444206e-12
0.0037561934
1.6668325e-12
0.0037561934
2.7483225e-12
0.0037561934
4.5001743e-12
0.0037561934
6.4542102e-12
0.0037561934
1.0766174e-11
0.0037561934
6.0042278e-12
0.0037561934
6.8888658e-13
0.0037561934
-8.9861477e-12
0.0037561934
-9.9609775e-11
-1.8336094e-10
0.0041057116
2.4956434e-06
0.0041145251
9.6561605e-06
0.0041238859
1.1880045e-05
0.0041309494
1.0227869e-05
0.0041356407
7.6188583e-06
0.0041385943
5.2883437e-06
0.0041403188
3.3900156e-06
0.0041412135
1.9532418e-06
0.0041416157
9.9979316e-07
0.004141768
4.5342902e-07
0.0041418117
1.7900301e-07
0.0041418154
5.717964e-08
0.0041418091
1.0844138e-08
0.0041418016
-3.0196361e-09
0.0041417966
-4.9524936e-09
0.0041417936
-3.5649614e-09
0.0041417921
-2.0806162e-09
0.0041417912
-1.1114899e-09
0.0041417908
-5.7708146e-10
0.0041417906
-3.0625632e-10
0.0041417905
-1.6574456e-10
0.0041417904
-9.3171785e-11
0.0041417904
-4.8422625e-11
0.0041417904
-2.4970306e-11
0.0041417904
-7.7582205e-12
0.0041417904
-7.414406e-13
0.0041417904
5.3392812e-12
0.0041417905
5.2953266e-12
0.0041417905
7.5507324e-12
0.0041417905
5.1481997e-12
0.0041417905
6.3381473e-12
0.0041417905
3.5407261e-12
0.0041417905
4.5160387e-12
0.0041417905
2.0317967e-12
0.0041417905
3.1690271e-12
0.0041417905
1.0169191e-12
0.0041417905
2.1372213e-12
0.0041417905
3.8579332e-13
0.0041417905
1.571547e-12
0.0041417905
-4.1099212e-15
0.0041417905
1.1353908e-12
0.0041417905
-2.8323764e-13
0.0041417905
9.9240231e-13
0.0041417905
-4.5516575e-13
0.0041417905
8.153097e-13
0.0041417905
-5.6995034e-13
0.0041417905
8.1939592e-13
0.0041417905
-6.0686031e-13
0.0041417905
7.120841e-13
0.0041417905
-6.5355835e-13
0.0041417905
7.5841131e-13
0.0041417905
-6.54963e-13
0.0041417905
6.7638416e-13
0.0041417905
-6.8130122e-13
0.0041417905
7.3738689e-13
0.0041417905
-6.7178612e-13
0.0041417905
6.6327078e-13
0.0041417905
-6.9157475e-13
0.0041417905
7.2939601e-13
0.0041417905
-6.7815984e-13
0.0041417905
6.58259e-13
0.0041417905
-6.9549694e-13
0.0041417905
7.2630592e-13
0.0041417905
-6.8065248e-13
0.0041417905
6.5624689e-13
0.0041417905
-6.9710213e-13
0.0041417905
7.250029e-13
0.0041417905
-6.8173655e-13
0.0041417905
6.5534003e-13
0.0041417905
-6.9784701e-13
0.0041417905
7.2442651e-13
0.0041417905
-6.8212107e-13
0.0041417905
6.5524873e-13
0.0041417905
-6.9749478e-13
0.0041417905
7.2545644e-13
0.0041417905
-6.8005119e-13
0.0041417905
6.5889623e-13
0.0041417905
-6.9151393e-13
0.0041417905
7.3504847e-13
0.0041417905
-6.6442763e-13
0.0041417905
6.8440563e-13
0.0041417905
-6.4922024e-13
0.0041417905
8.0337621e-13
0.0041417905
-5.4856389e-13
0.0041417905
8.6003349e-13
0.0041417905
-3.4430714e-13
0.0041417905
1.2082623e-12
0.0041417905
7.6419262e-14
0.0041417905
1.7434282e-12
0.0041417905
6.7521744e-13
0.0041417905
2.8830077e-12
0.0041417905
2.3655976e-12
0.0041417905
6.555393e-12
0.0041417905
6.6817223e-12
0.0041417905
1.1932648e-11
0.0041417905
6.2718372e-12
0.0041417905
2.1441877e-12
0.0041417905
-6.8073286e-12
0.0041417904
-6.8059893e-11
-1.2471127e-10
0.004236686
-6.2567268e-11
0.0042463395
-2.7905949e-10
0.0042582197
-9.0111547e-11
0.0042684497
3.0032778e-13
0.0042760708
-2.0624102e-10
0.0042813606
-6.0895812e-10
0.0042847518
-8.2865751e-10
0.0042867062
-7.7620881e-10
0.0042877073
-6.1502919e-10
0.004288162
-4.4723629e-10
0.004288342
-3.0418002e-10
0.0042884
-1.7935869e-10
0.0042884115
-9.2789074e-11
0.004288409
-3.699641e-11
0.0042884044
-2.8621922e-12
0.004288401
1.5398583e-11
0.0042883991
2.1614692e-11
0.0042883982
2.4977855e-11
0.0042883977
2.3079932e-11
0.0042883974
2.2217417e-11
0.0042883973
1.8314306e-11
0.0042883972
1.7107035e-11
0.0042883972
1.3348254e-11
0.0042883972
1.2409505e-11
0.0042883972
9.0348824e-12
0.0042883972
8.8949439e-12
0.0042883972
6.0641365e-12
0.0042883972
6.0883599e-12
0.0042883972
3.7666566e-12
0.0042883972
4.1824742e-12
0.0042883972
2.3087309e-12
0.0042883973
2.8972675e-12
0.0042883973
1.1601896e-12
0.0042883973
2.1121401e-12
0.0042883973
6.2692151e-13
0.0042883973
1.5481614e-12
0.0042883973
7.740178e-14
0.0042883973
1.2332171e-12
0.0042883973
-9.6655602e-14
0.0042883973
9.7410572e-13
0.0042883973
-4.1778343e-13
0.0042883973
8.5605938e-13
0.0042883973
-4.0645785e-13
0.0042883973
7.276878e-13
0.0042883973
-6.065436e-13
0.0042883973
7.0672029e-13
0.0042883973
-5.1193322e-13
0.0042883973
6.4823173e-13
0.0042883973
-6.6444317e-13
0.0042883973
6.6357105e-13
0.0042883973
-5.4420154e-13
0.0042883973
6.2422887e-13
0.0042883973
-6.821417e-13
0.0042883973
6.5027873e-13
0.0042883973
-5.5436137e-13
0.0042883973
6.1630135e-13
0.0042883973
-6.8833369e-13
0.0042883973
6.454024e-13
0.0042883973
-5.5823344e-13
0.0042883973
6.1320107e-13
0.0042883973
-6.9079769e-13
0.0042883973
6.4343514e-13
0.0042883973
-5.5982722e-13
0.0042883973
6.1190037e-13
0.0042883973
-6.9185803e-13
0.0042883973
6.4256686e-13
0.0042883973
-5.6055712e-13
0.0042883973
6.1126441e-13
0.0042883973
-6.9243796e-13
0.0042883973
6.4202105e-13
0.0042883973
-5.6107607e-13
0.0042883973
6.1081615e-13
0.0042883973
-6.9270189e-13
0.0042883973
6.421489e-13
0.0042883973
-5.6023385e-13
0.0042883973
6.128531e-13
0.0042883973
-6.8882352e-13
0.0042883973
6.4880903e-13
0.0042883973
-5.494435e-13
0.0042883973
6.3004198e-13
0.0042883973
-6.6134432e-13
0.0042883973
6.9338542e-13
0.0042883973
-4.7640373e-13
0.0042883973
7.4856227e-13
0.0042883973
-4.7466723e-13
0.0042883973
9.8265801e-13
0.0042883973
-5.170918e-14
0.0042883973
1.3698722e-12
0.0042883973
3.5278956e-13
0.0042883973
2.0960522e-12
0.0042883973
1.7009152e-12
0.0042883973
4.5588878e-12
0.0042883973
5.5034525e-12
0.0042883973
9.8056365e-12
0.0042883973
1.0140993e-11
0.0042883973
1.2125629e-11
0.0042883973
1.0852861e-11
0.0042883972
8.797209e-12
0.0042883971
4.3037014e-12
2.147463e-12
0.0042366859
-2.4956767e-06
0.0042463393
-9.6554463e-06
0.0042582197
-1.1879473e-05
0.0042684498
-1.0228092e-05
0.004276071
-7.6197105e-06
0.0042813607
-5.2895378e-06
0.0042847517
-3.3913568e-06
0.004286706
-1.9545323e-06
0.004287707
-1.0008657e-06
0.0042881616
-4.5421832e-07
0.0042883417
-1.795304e-07
0.0042883997
-5.7496516e-08
0.0042884112
-1.1004095e-08
0.0042884088
2.9375117e-09
0.0042884042
4.9420807e-09
0.0042884009
3.5877362e-09
0.004288399
2.1164761e-09
0.0042883981
1.1527095e-09
0.0042883976
6.1678516e-10
0.0042883974
3.4438641e-10
0.0042883973
1.9881726e-10
0.0042883972
1.2306279e-10
0.0042883972
7.3085374e-11
0.0042883972
4.6658802e-11
0.0042883972
2.4815879e-11
0.0042883972
1.6372731e-11
0.0042883972
6.3502532e-12
0.0042883972
4.841103e-12
0.0042883972
4.1836523e-13
0.0042883972
1.4475541e-12
0.0042883972
-1.1709007e-12
0.0042883973
6.6170449e-13
0.0042883973
-1.3908654e-12
0.0042883973
9.1336098e-13
0.0042883973
-1.1744283e-12
0.0042883973
9.090884e-13
0.0042883973
-1.1383983e-12
0.0042883973
1.1380339e-12
0.0042883973
-1.024456e-12
0.0042883973
9.9686729e-13
0.0042883973
-1.0985304e-12
0.0042883973
1.1465479e-12
0.0042883973
-1.030101e-12
0.0042883973
9.7962074e-13
0.0042883973
-1.1147122e-12
0.0042883973
1.1340656e-12
0.0042883973
-1.034696e-12
0.0042883973
9.7872645e-13
0.0042883973
-1.1124075e-12
0.0042883973
1.1380127e-12
0.0042883973
-1.0306463e-12
0.0042883973
9.8312151e-13
0.0042883973
-1.1078829e-12
0.0042883973
1.1420808e-12
0.0042883973
-1.0273767e-12
0.0042883973
9.8575504e-13
0.0042883973
-1.1057554e-12
0.0042883973
1.1437057e-12
0.0042883973
-1.0262136e-12
0.0042883973
9.8659759e-13
0.0042883973
-1.1051238e-12
0.0042883973
1.1441565e-12
0.0042883973
-1.0259271e-12
0.0042883973
9.867881e-13
0.0042883973
-1.1049868e-12
0.0042883973
1.1442473e-12
0.0042883973
-1.0258907e-12
0.0042883973
9.8676224e-13
0.0042883973
-1.1050804e-12
0.0042883973
1.1440568e-12
0.0042883973
-1.026191e-12
0.0042883973
9.8641227e-13
0.0042883973
-1.1053329e-12
0.0042883973
1.1441538e-12
0.0042883973
-1.0253578e-12
0.0042883973
9.8860429e-13
0.0042883973
-1.1010532e-12
0.0042883973
1.151439e-12
0.0042883973
-1.0137386e-12
0.0042883973
1.0065604e-12
0.0042883973
-1.0735958e-12
0.0042883973
1.1939096e-12
0.0042883973
-9.4494457e-13
0.0042883973
1.1139858e-12
0.0042883973
-9.0399456e-13
0.0042883973
1.440114e-12
0.0042883973
-5.3653492e-13
0.0042883973
1.657107e-12
0.0042883973
-1.087088e-13
0.0042883973
2.6308044e-12
0.0042883973
1.1703414e-12
0.0042883973
5.279746e-12
0.0042883973
4.3269019e-12
0.0042883973
1.03394e-11
0.0042883973
6.8977365e-12
0.0042883973
1.6104092e-11
0.0042883973
1.8191801e-11
0.0042883972
2.1796622e-11
0.0042883971
7.6165252e-11
1.2872776e-10
0.004105711
-5.3260627e-06
0.0041145254
-1.8472107e-05
0.0041238864
-2.1241535e-05
0.0041309497
-1.7290343e-05
0.0041356407
-1.2309282e-05
0.004138594
-8.2419894e-06
0.0041403182
-5.1149557e-06
0.0041412128
-2.8483586e-06
0.0041416148
-1.4019425e-06
0.0041417671
-6.055296e-07
0.0041418108
-2.2226183e-07
0.0041418147
-6.0488662e-08
0.0041418084
-4.0555776e-09
0.0041418011
1.0840012e-08
0.0041417962
1.0256604e-08
0.0041417933
6.7421133e-09
0.0041417918
3.8661535e-09
0.004141791
2.0916861e-09
0.0041417907
1.1260463e-09
0.0041417905
6.1496584e-10
0.0041417904
3.5080324e-10
0.0041417904
1.9865529e-10
0.0041417904
1.1688105e-10
0.0041417904
6.1169033e-11
0.0041417904
3.4972211e-11
0.0041417904
1.3061123e-11
0.0041417904
6.8435474e-12
0.0041417904
-1.6344608e-12
0.0041417905
-8.1383742e-13
0.0041417905
-4.6269492e-12
0.0041417905
-1.4148627e-12
0.0041417905
-4.2804137e-12
0.0041417905
-6.5470928e-13
0.0041417905
-3.0934017e-12
0.0041417905
1.1709084e-13
0.0041417905
-2.4839608e-12
0.0041417905
7.9491658e-13
0.0041417905
-1.9223137e-12
0.0041417905
1.0725629e-12
0.0041417905
-1.8535113e-12
0.0041417905
1.3111404e-12
0.0041417905
-1.5923715e-12
0.0041417905
1.3340759e-12
0.0041417905
-1.682388e-12
0.0041417905
1.445755e-12
0.0041417905
-1.4913154e-12
0.0041417905
1.4167236e-12
0.0041417905
-1.6195783e-12
0.0041417905
1.4974354e-12
0.0041417905
-1.4501521e-12
0.0041417905
1.4495205e-12
0.0041417905
-1.5934342e-12
0.0041417905
1.518844e-12
0.0041417905
-1.4331824e-12
0.0041417905
1.4627431e-12
0.0041417905
-1.5831144e-12
0.0041417905
1.5270226e-12
0.0041417905
-1.4268515e-12
0.0041417905
1.4675441e-12
0.0041417905
-1.5794358e-12
0.0041417905
1.5298892e-12
0.0041417905
-1.4246524e-12
0.0041417905
1.4691984e-12
0.0041417905
-1.5781619e-12
0.0041417905
1.5309015e-12
0.0041417905
-1.4238514e-12
0.0041417905
1.4698135e-12
0.0041417905
-1.5777017e-12
0.0041417905
1.5312141e-12
0.0041417905
-1.4237055e-12
0.0041417905
1.4698036e-12
0.0041417905
-1.5777912e-12
0.0041417905
1.5312104e-12
0.0041417905
-1.4233642e-12
0.0041417905
1.4709461e-12
0.0041417905
-1.5752358e-12
0.0041417905
1.5360118e-12
0.0041417905
-1.415453e-12
0.0041417905
1.4830532e-12
0.0041417905
-1.5573128e-12
0.0041417905
1.5625429e-12
0.0041417905
-1.37558e-12
0.0041417905
1.5429327e-12
0.0041417905
-1.4653963e-12
0.0041417905
1.7006535e-12
0.0041417905
-1.1633234e-12
0.0041417905
1.8508533e-12
0.0041417905
-1.0173842e-12
0.0041417905
2.2910314e-12
0.0041417905
-8.4505655e-14
0.0041417905
3.5236061e-12
0.0041417905
1.4107879e-12
0.0041417905
5.6889082e-12
0.0041417905
3.5647737e-12
0.0041417905
5.7717487e-12
0.0041417905
9.2305304e-12
0.0041417905
1.5294815e-11
0.0041417905
1.9722177e-11
0.0041417905
1.0552835e-10
1.8679688e-10
0.0037539925
-7.6620168e-06
0.0037582558
-2.273813e-05
0.0037604515
-2.3437448e-05
0.0037604944
-1.7332119e-05
0.0037595902
-1.1403657e-05
0.0037585279
-7.1785075e-06
0.0037576288
-4.2147907e-06
0.0037569877
-2.2061247e-06
0.0037565906
-1.0035348e-06
0.0037563736
-3.8732696e-07
0.0037562676
-1.1511424e-07
0.0037562212
-1.3167279e-08
0.0037562021
1.5882393e-08
0.0037561956
1.787191e-08
0.0037561936
1.2703371e-08
0.0037561931
7.6207849e-09
0.0037561929
4.2236665e-09
0.0037561929
2.2676722e-09
0.003756193
1.212184e-09
0.003756193
6.5453391e-10
0.0037561931
3.5769208e-10
0.0037561932
1.9437951e-10
0.0037561932
1.0319155e-10
0.0037561933
5.1085852e-11
0.0037561933
2.2699511e-11
0.0037561933
6.6060676e-12
0.0037561933
-5.0599365e-13
0.0037561934
-4.4569815e-12
0.0037561934
-5.0638387e-12
0.0037561934
-5.3160589e-12
0.0037561934
-4.3695688e-12
0.0037561934
-3.8212941e-12
0.0037561934
-2.6558448e-12
0.0037561934
-2.452046e-12
0.0037561934
-1.5883645e-12
0.0037561934
-1.4362133e-12
0.0037561934
-6.7787131e-13
0.0037561934
-9.2337353e-13
0.0037561934
-3.9741885e-13
0.0037561934
-5.9977975e-13
0.0037561934
2.4017283e-15
0.0037561934
-4.7740589e-13
0.0037561934
-1.061229e-14
0.0037561934
-3.5544548e-13
0.0037561934
1.7372819e-13
0.0037561934
-3.2223569e-13
0.0037561934
1.0207225e-13
0.0037561934
-2.6687247e-13
0.0037561934
2.4114223e-13
0.0037561934
-2.6488224e-13
0.0037561934
1.3958969e-13
0.0037561934
-2.3284067e-13
0.0037561934
2.6813052e-13
0.0037561934
-2.4368757e-13
0.0037561934
1.5427056e-13
0.0037561934
-2.2042982e-13
0.0037561934
2.7817297e-13
0.0037561934
-2.3609237e-13
0.0037561934
1.5958719e-13
0.0037561934
-2.160732e-13
0.0037561934
2.8171809e-13
0.0037561934
-2.3345127e-13
0.0037561934
1.6145046e-13
0.0037561934
-2.1454187e-13
0.0037561934
2.8300172e-13
0.0037561934
-2.3246371e-13
0.0037561934
1.6217639e-13
0.0037561934
-2.1393028e-13
0.0037561934
2.8349484e-13
0.0037561934
-2.3211427e-13
0.0037561934
1.6241261e-13
0.0037561934
-2.1369453e-13
0.0037561934
2.8389236e-13
0.0037561934
-2.3132179e-13
0.0037561934
1.6383812e-13
0.0037561934
-2.1098372e-13
0.0037561934
2.8880958e-13
0.0037561934
-2.2385195e-13
0.0037561934
1.7409995e-13
0.0037561934
-1.9580549e-13
0.0037561934
3.1258978e-13
0.0037561934
-1.9131556e-13
0.0037561934
2.2004379e-13
0.0037561934
-1.3143393e-13
0.0037561934
4.2247772e-13
0.0037561934
-6.0998993e-14
0.0037561934
4.2766531e-13
0.0037561934
1.6258135e-13
0.0037561934
8.3664491e-13
0.0037561934
6.9597632e-13
0.0037561934
1.2749792e-12
0.0037561934
1.3851521e-12
0.0037561934
1.2265037e-12
0.0037561934
3.5998951e-13
0.0037561934
-2.4958276e-12
0.0037561934
1.6137021e-12
0.0037561934
-3.4795895e-12
0.0037561934
-2.7559014e-13
0.0037561935
6.6931812e-11
1.3978689e-10
0.0029745727
-6.5211275e-06
0.0029677368
-1.5902859e-05
0.0029582081
-1.3908571e-05
0.0029497238
-8.846427e-06
0.0029434362
-5.1141535e-06
0.0029391868
-2.9272158e-06
0.0029365546
-1.5809845e-06
0.0029350905
-7.4045641e-07
0.0029343688
-2.8032657e-07
0.0029340564
-7.3531328e-08
0.0029339413
1.1569474e-09
0.0029339088
2.0446127e-08
0.0029339062
1.919978e-08
0.0029339113
1.3382798e-08
0.0029339164
8.0687857e-09
0.0029339199
4.4901167e-09
0.002933922
2.3958548e-09
0.0029339232
1.2604396e-09
0.0029339239
6.5824162e-10
0.0029339243
3.4676909e-10
0.0029339245
1.791256e-10
0.0029339247
9.3010872e-11
0.0029339248
4.3459671e-11
0.0029339248
2.0276636e-11
0.0029339249
5.2853081e-12
0.0029339249
8.0364167e-13
0.0029339249
-3.990709e-12
0.0029339249
-2.5419275e-12
0.0029339249
-4.8027168e-12
0.0029339249
-2.116244e-12
0.0029339249
-3.7080061e-12
0.0029339249
-9.8025783e-13
0.0029339249
-2.6256923e-12
0.0029339249
-3.0918586e-13
0.0029339249
-1.8991931e-12
0.0029339249
3.345981e-13
0.0029339249
-1.4958589e-12
0.0029339249
5.6961874e-13
0.0029339249
-1.2932295e-12
0.0029339249
8.446303e-13
0.0029339249
-1.1660553e-12
0.0029339249
8.3569757e-13
0.0029339249
-1.1096743e-12
0.0029339249
9.8608248e-13
0.0029339249
-1.0641711e-12
0.0029339249
9.1844418e-13
0.0029339249
-1.0492561e-12
0.0029339249
1.0338549e-12
0.0029339249
-1.0277846e-12
0.0029339249
9.4714271e-13
0.0029339249
-1.0281456e-12
0.0029339249
1.0509534e-12
0.0029339249
-1.0143753e-12
0.0029339249
9.5748038e-13
0.0029339249
-1.0204465e-12
0.0029339249
1.0570735e-12
0.0029339249
-1.0095766e-12
0.0029339249
9.611228e-13
0.0029339249
-1.0177445e-12
0.0029339249
1.0591873e-12
0.0029339249
-1.0079165e-12
0.0029339249
9.6237263e-13
0.0029339249
-1.0168119e-12
0.0029339249
1.0599318e-12
0.0029339249
-1.0073076e-12
0.0029339249
9.6286079e-13
0.0029339249
-1.0164102e-12
0.0029339249
1.0602849e-12
0.0029339249
-1.0069983e-12
0.0029339249
9.6313891e-13
0.0029339249
-1.0161501e-12
0.0029339249
1.0605905e-12
0.0029339249
-1.0065704e-12
0.0029339249
9.6381959e-13
0.0029339249
-1.0150572e-12
0.0029339249
1.0624274e-12
0.0029339249
-1.0036515e-12
0.0029339249
9.6816118e-13
0.0029339249
-1.0089329e-12
0.0029339249
1.0712003e-12
0.0029339249
-9.9116796e-13
0.0029339249
9.8520572e-13
0.0029339249
-9.8555007e-13
0.0029339249
1.1040896e-12
0.0029339249
-9.4290521e-13
0.0029339249
1.0543107e-12
0.0029339249
-8.8850914e-13
0.0029339249
1.2322571e-12
0.0029339249
-7.0724709e-13
0.0029339249
1.3747286e-12
0.0029339249
-5.5311147e-13
0.0029339249
1.2595222e-12
0.0029339249
-1.9911937e-12
0.002933925
-1.2072308e-12
0.002933925
-5.7657382e-12
0.002933925
-6.0775458e-12
0.0029339249
-1.7255412e-11
0.002933925
-2.2726608e-11
0.002933925
-6.9129482e-12
3.3935101e-11
0.0014124095
0.0013965065
0.0013825985
0.0013737531
0.00136864
0.0013657137
0.0013641335
0.0013633938
0.0013631142
0.0013630413
0.001363043
0.0013630639
0.0013630834
0.001363097
0.0013631053
0.0013631099
0.0013631124
0.0013631137
0.0013631145
0.0013631148
0.0013631151
0.0013631152
0.0013631152
0.0013631153
0.0013631153
0.0013631153
0.0013631153
0.0013631153
0.0013631153
0.0013631153
0.0013631153
0.0013631153
0.0013631153
0.0013631153
0.0013631153
0.0013631153
0.0013631153
0.0013631153
0.0013631153
0.0013631153
0.0013631153
0.0013631153
0.0013631153
0.0013631153
0.0013631153
0.0013631153
0.0013631153
0.0013631153
0.0013631153
0.0013631153
0.0013631153
0.0013631153
0.0013631153
0.0013631153
0.0013631153
0.0013631153
0.0013631153
0.0013631153
0.0013631153
0.0013631153
0.0013631153
0.0013631153
0.0013631153
0.0013631153
0.0013631153
0.0013631153
0.0013631153
0.0013631153
0.0013631153
0.0013631153
0.0013631153
0.0013631153
0.0013631153
0.0013631153
0.0013631153
0.0013631153
0.0013631153
0.0013631153
0.0013631153
0.0013631153
0.0013631153
0.0013631153
0.0013631153
0.0013631153
0.0013631153
0.0013631153
0.0013631153
0.0013631153
0.0013631153
0.0013631153
0.0013631153
0.0013631153
0.0013631153
0.0013631153
0.0013631153
0.0013631153
0.0013631152
0.0013631152
0.0013631152
)
;

boundaryField
{
    top
    {
        type            calculated;
        value           uniform 0;
    }
    inlet
    {
        type            calculated;
        value           nonuniform List<scalar> 10(-0.0014189332 -0.0029757185 -0.003751662 -0.0041028841 -0.0042341929 -0.0042341936 -0.0041028827 -0.0037516592 -0.0029757144 -0.0014189308);
    }
    outlet
    {
        type            calculated;
        value           nonuniform List<scalar> 10(0.0013631152 0.0029339251 0.0037561935 0.0041417904 0.004288397 0.004288397 0.0041417904 0.0037561935 0.0029339251 0.0013631152);
    }
    bottom
    {
        type            calculated;
        value           uniform 0;
    }
    back
    {
        type            empty;
        value           nonuniform 0();
    }
    front
    {
        type            empty;
        value           nonuniform 0();
    }
}


// ************************************************************************* //
