/*--------------------------------*- C++ -*----------------------------------*\
| =========                 |                                                 |
| \\      /  F ield         | OpenFOAM: The Open Source CFD Toolbox           |
|  \\    /   O peration     | Version:  4.1                                   |
|   \\  /    A nd           | Web:      www.OpenFOAM.org                      |
|    \\/     M anipulation  |                                                 |
\*---------------------------------------------------------------------------*/
FoamFile
{
    version     2.0;
    format      ascii;
    class       volVectorField;
    location    "3";
    object      U;
}
// * * * * * * * * * * * * * * * * * * * * * * * * * * * * * * * * * * * * * //

dimensions      [0 1 -1 0 0 0 0];

internalField   nonuniform List<vector> 
1000
(
(0.14675742 0.00043808777 0)
(0.14575598 0.00095311002 0)
(0.14391342 0.00077638541 0)
(0.14262884 0.0004338746 0)
(0.14192632 0.00021398726 0)
(0.14153753 0.00010668412 0)
(0.14131615 5.0151418e-05 0)
(0.1412021 1.831944e-05 0)
(0.14115413 3.1743381e-06 0)
(0.1411392 -1.916464e-06 0)
(0.14113725 -2.6336973e-06 0)
(0.14113913 -2.0413199e-06 0)
(0.14114148 -1.3385967e-06 0)
(0.14114327 -7.9777191e-07 0)
(0.14114442 -4.4303226e-07 0)
(0.14114507 -2.3535949e-07 0)
(0.14114543 -1.22351e-07 0)
(0.14114562 -6.2793665e-08 0)
(0.14114572 -3.1900102e-08 0)
(0.14114578 -1.5811621e-08 0)
(0.1411458 -7.5513087e-09 0)
(0.14114582 -3.2124225e-09 0)
(0.14114583 -1.0996259e-09 0)
(0.14114583 2.3280355e-12 0)
(0.14114583 3.9757696e-10 0)
(0.14114583 5.5506366e-10 0)
(0.14114583 4.7645851e-10 0)
(0.14114583 4.6012479e-10 0)
(0.14114583 3.3765266e-10 0)
(0.14114583 3.1499048e-10 0)
(0.14114583 2.0144248e-10 0)
(0.14114583 1.9694541e-10 0)
(0.14114583 1.0619091e-10 0)
(0.14114583 1.2567093e-10 0)
(0.14114583 4.7460215e-11 0)
(0.14114583 7.9020645e-11 0)
(0.14114583 1.1726255e-11 0)
(0.14114583 5.6150246e-11 0)
(0.14114583 -9.3035533e-12 0)
(0.14114583 4.0089278e-11 0)
(0.14114583 -1.9200828e-11 0)
(0.14114583 3.6826217e-11 0)
(0.14114583 -2.234798e-11 0)
(0.14114583 3.1982214e-11 0)
(0.14114583 -2.4724224e-11 0)
(0.14114583 3.2521442e-11 0)
(0.14114583 -2.6228004e-11 0)
(0.14114583 2.8797986e-11 0)
(0.14114583 -2.7538029e-11 0)
(0.14114583 3.0463473e-11 0)
(0.14114583 -2.7914679e-11 0)
(0.14114583 2.7705002e-11 0)
(0.14114583 -2.8315303e-11 0)
(0.14114583 2.9941387e-11 0)
(0.14114583 -2.8273229e-11 0)
(0.14114583 2.7447606e-11 0)
(0.14114583 -2.8507052e-11 0)
(0.14114583 2.9796534e-11 0)
(0.14114583 -2.8378867e-11 0)
(0.14114583 2.7370819e-11 0)
(0.14114583 -2.8564813e-11 0)
(0.14114583 2.9752124e-11 0)
(0.14114583 -2.8411871e-11 0)
(0.14114583 2.7345361e-11 0)
(0.14114583 -2.8585581e-11 0)
(0.14114583 2.9734701e-11 0)
(0.14114583 -2.8426288e-11 0)
(0.14114583 2.7333959e-11 0)
(0.14114583 -2.8595049e-11 0)
(0.14114583 2.9728803e-11 0)
(0.14114583 -2.8428362e-11 0)
(0.14114583 2.7336394e-11 0)
(0.14114583 -2.8585276e-11 0)
(0.14114583 2.974609e-11 0)
(0.14114583 -2.8401778e-11 0)
(0.14114583 2.737625e-11 0)
(0.14114583 -2.8527548e-11 0)
(0.14114583 2.9828334e-11 0)
(0.14114583 -2.828724e-11 0)
(0.14114583 2.7543968e-11 0)
(0.14114583 -2.8262607e-11 0)
(0.14114583 3.0266368e-11 0)
(0.14114583 -2.7534386e-11 0)
(0.14114583 2.8782049e-11 0)
(0.14114583 -2.6010376e-11 0)
(0.14114583 3.3434733e-11 0)
(0.14114583 -2.2814114e-11 0)
(0.14114583 3.5160083e-11 0)
(0.14114583 -1.5283976e-11 0)
(0.14114583 5.2719684e-11 0)
(0.14114583 1.6201797e-11 0)
(0.14114583 9.795639e-11 0)
(0.14114583 1.0984158e-10 0)
(0.14114583 2.7363189e-10 0)
(0.14114583 5.016017e-10 0)
(0.14114583 7.7535763e-10 0)
(0.14114583 1.2983501e-09 0)
(0.14114583 1.5645371e-09 0)
(0.14114583 1.627064e-09 0)
(0.14114582 -7.3360701e-10 0)
(0.3078057 0.00074214223 0)
(0.30863038 0.0021206704 0)
(0.30708434 0.0021124923 0)
(0.3057766 0.0014755446 0)
(0.305022 0.00090473605 0)
(0.30453226 0.00053364531 0)
(0.30418884 0.0002956733 0)
(0.30397726 0.00014453863 0)
(0.30386888 5.9248748e-05 0)
(0.30382119 1.8793541e-05 0)
(0.30380264 2.8974645e-06 0)
(0.30379662 -1.9379007e-06 0)
(0.30379549 -2.5598462e-06 0)
(0.30379593 -1.956982e-06 0)
(0.30379657 -1.2297704e-06 0)
(0.30379703 -6.9921684e-07 0)
(0.30379732 -3.7839176e-07 0)
(0.30379748 -2.0063246e-07 0)
(0.30379757 -1.0589659e-07 0)
(0.30379762 -5.5838289e-08 0)
(0.30379765 -2.9238425e-08 0)
(0.30379767 -1.4817311e-08 0)
(0.30379768 -7.0201831e-09 0)
(0.30379769 -2.7685564e-09 0)
(0.30379769 -6.1226555e-10 0)
(0.30379769 4.2695792e-10 0)
(0.30379769 7.9766243e-10 0)
(0.30379769 9.18729e-10 0)
(0.30379769 8.362309e-10 0)
(0.3037977 7.5207782e-10 0)
(0.30379769 5.8992791e-10 0)
(0.3037977 4.9380249e-10 0)
(0.30379769 3.6125184e-10 0)
(0.3037977 3.076644e-10 0)
(0.30379769 2.070986e-10 0)
(0.3037977 1.7899911e-10 0)
(0.30379769 1.1019028e-10 0)
(0.30379769 1.1034466e-10 0)
(0.30379769 5.4308127e-11 0)
(0.30379769 6.0595818e-11 0)
(0.30379769 2.1865452e-11 0)
(0.30379769 4.2195258e-11 0)
(0.30379769 6.9760085e-12 0)
(0.30379769 2.2898107e-11 0)
(0.30379769 -2.6404336e-12 0)
(0.30379769 2.2533051e-11 0)
(0.30379769 -5.3302447e-12 0)
(0.30379769 1.3732447e-11 0)
(0.30379769 -8.6093173e-12 0)
(0.30379769 1.7677502e-11 0)
(0.30379769 -8.8307051e-12 0)
(0.30379769 1.0803849e-11 0)
(0.30379769 -1.0933881e-11 0)
(0.30379769 1.5764578e-11 0)
(0.30379769 -1.036153e-11 0)
(0.30379769 9.602856e-12 0)
(0.30379769 -1.1867326e-11 0)
(0.30379769 1.5042105e-11 0)
(0.30379769 -1.0916457e-11 0)
(0.30379769 9.1785651e-12 0)
(0.30379769 -1.2192298e-11 0)
(0.30379769 1.4792393e-11 0)
(0.30379769 -1.1108861e-11 0)
(0.30379769 9.0285546e-12 0)
(0.30379769 -1.2311023e-11 0)
(0.30379769 1.4697462e-11 0)
(0.30379769 -1.1185359e-11 0)
(0.30379769 8.968009e-12 0)
(0.30379769 -1.2357193e-11 0)
(0.30379769 1.4666614e-11 0)
(0.30379769 -1.1198824e-11 0)
(0.30379769 8.9748625e-12 0)
(0.30379769 -1.2324474e-11 0)
(0.30379769 1.4729849e-11 0)
(0.30379769 -1.1097395e-11 0)
(0.30379769 9.1276513e-12 0)
(0.30379769 -1.2098999e-11 0)
(0.30379769 1.5061023e-11 0)
(0.30379769 -1.0602971e-11 0)
(0.30379769 9.88993e-12 0)
(0.30379769 -1.0908996e-11 0)
(0.30379769 1.6888084e-11 0)
(0.30379769 -7.9461551e-12 0)
(0.30379769 1.3949168e-11 0)
(0.30379769 -5.3757768e-12 0)
(0.30379769 2.6790868e-11 0)
(0.30379769 5.8997442e-12 0)
(0.30379769 4.0196218e-11 0)
(0.30379769 3.144516e-11 0)
(0.30379769 9.0247588e-11 0)
(0.30379769 1.000394e-10 0)
(0.30379769 1.7832686e-10 0)
(0.30379769 2.8038658e-10 0)
(0.30379769 4.7910227e-10 0)
(0.30379769 1.0071223e-09 0)
(0.3037977 1.0856408e-09 0)
(0.30379769 1.8483505e-09 0)
(0.3037977 1.7808793e-09 0)
(0.30379769 -2.0975121e-09 0)
(0.30379772 -8.7276326e-09 0)
(0.38795713 0.00063021019 0)
(0.39036446 0.0021396669 0)
(0.38973534 0.0024286462 0)
(0.38927791 0.0019454478 0)
(0.38926046 0.0013570734 0)
(0.38925043 0.00088887449 0)
(0.38915496 0.00054065903 0)
(0.38905701 0.00029528689 0)
(0.38899751 0.00014206538 0)
(0.38896767 5.9469564e-05 0)
(0.38895273 2.0727636e-05 0)
(0.38894541 4.888047e-06 0)
(0.38894228 -4.1283557e-07 0)
(0.38894116 -1.471729e-06 0)
(0.38894083 -1.2214043e-06 0)
(0.38894074 -7.7470698e-07 0)
(0.38894071 -4.3902984e-07 0)
(0.3889407 -2.3736808e-07 0)
(0.3889407 -1.2717732e-07 0)
(0.3889407 -6.8995103e-08 0)
(0.38894071 -3.7975219e-08 0)
(0.38894071 -2.0890646e-08 0)
(0.38894071 -1.1123288e-08 0)
(0.38894072 -5.4919766e-09 0)
(0.38894072 -2.2498712e-09 0)
(0.38894072 -4.8306073e-10 0)
(0.38894072 4.1528854e-10 0)
(0.38894072 7.7987406e-10 0)
(0.38894073 8.8665483e-10 0)
(0.38894073 8.3036884e-10 0)
(0.38894073 7.3131174e-10 0)
(0.38894073 5.9677371e-10 0)
(0.38894073 4.9073422e-10 0)
(0.38894073 3.8126967e-10 0)
(0.38894073 3.0372441e-10 0)
(0.38894073 2.2654483e-10 0)
(0.38894073 1.8307456e-10 0)
(0.38894073 1.3661169e-10 0)
(0.38894073 1.0983528e-10 0)
(0.38894073 7.6838087e-11 0)
(0.38894073 6.5801181e-11 0)
(0.38894073 4.6407865e-11 0)
(0.38894073 3.9041726e-11 0)
(0.38894073 2.2897094e-11 0)
(0.38894073 2.3894592e-11 0)
(0.38894073 1.4593449e-11 0)
(0.38894073 1.4884475e-11 0)
(0.38894073 4.6765029e-12 0)
(0.38894073 1.0419356e-11 0)
(0.38894073 4.3913367e-12 0)
(0.38894073 7.5052318e-12 0)
(0.38894073 -1.1488336e-12 0)
(0.38894073 5.875819e-12 0)
(0.38894073 7.7367851e-13 0)
(0.38894073 4.6438804e-12 0)
(0.38894073 -3.4022575e-12 0)
(0.38894073 4.1120504e-12 0)
(0.38894073 -6.0083007e-13 0)
(0.38894073 3.5745954e-12 0)
(0.38894073 -4.2340173e-12 0)
(0.38894073 3.4651551e-12 0)
(0.38894073 -1.1033013e-12 0)
(0.38894073 3.1824143e-12 0)
(0.38894073 -4.5434744e-12 0)
(0.38894073 3.2194805e-12 0)
(0.38894073 -1.2997006e-12 0)
(0.38894073 3.0246701e-12 0)
(0.38894073 -4.6705109e-12 0)
(0.38894073 3.119636e-12 0)
(0.38894073 -1.3738857e-12 0)
(0.38894073 2.9781223e-12 0)
(0.38894073 -4.6850727e-12 0)
(0.38894073 3.1431095e-12 0)
(0.38894073 -1.3019617e-12 0)
(0.38894073 3.1132164e-12 0)
(0.38894073 -4.4619213e-12 0)
(0.38894073 3.4932799e-12 0)
(0.38894073 -7.5997747e-13 0)
(0.38894073 3.9704585e-12 0)
(0.38894073 -3.0667865e-12 0)
(0.38894073 5.7799622e-12 0)
(0.38894073 2.9769151e-12 0)
(0.38894073 9.9433931e-12 0)
(0.38894073 6.6775558e-12 0)
(0.38894073 2.0660512e-11 0)
(0.38894073 2.5716178e-11 0)
(0.38894073 4.3404771e-11 0)
(0.38894073 5.4192967e-11 0)
(0.38894073 9.0526692e-11 0)
(0.38894073 1.1970522e-10 0)
(0.38894073 1.7494151e-10 0)
(0.38894073 2.238196e-10 0)
(0.38894073 4.1450826e-10 0)
(0.38894073 5.4222426e-10 0)
(0.38894073 1.0781229e-09 0)
(0.38894073 6.1046103e-10 0)
(0.38894072 4.2620202e-10 0)
(0.38894074 -4.8635805e-10 0)
(0.38894072 -9.6104827e-09 0)
(0.38894074 -1.8778834e-08 0)
(0.42417648 0.0003765311 0)
(0.42729985 0.0014236012 0)
(0.42709312 0.00174046 0)
(0.42723599 0.0014970363 0)
(0.42789928 0.0011140715 0)
(0.42843137 0.00077071533 0)
(0.42868312 0.00049236685 0)
(0.42878641 0.00028315188 0)
(0.42883709 0.00014481313 0)
(0.42886211 6.5640642e-05 0)
(0.42887061 2.5912696e-05 0)
(0.42887145 8.2836326e-06 0)
(0.42887044 1.5286755e-06 0)
(0.42886949 -4.4818879e-07 0)
(0.42886883 -6.9604011e-07 0)
(0.42886842 -5.04012e-07 0)
(0.42886819 -2.9612023e-07 0)
(0.42886807 -1.5975712e-07 0)
(0.42886801 -8.4162614e-08 0)
(0.42886798 -4.5273693e-08 0)
(0.42886797 -2.5089784e-08 0)
(0.42886796 -1.4263882e-08 0)
(0.42886796 -7.8477518e-09 0)
(0.42886796 -4.1076745e-09 0)
(0.42886796 -1.7099131e-09 0)
(0.42886796 -4.4547329e-10 0)
(0.42886796 3.6357202e-10 0)
(0.42886796 6.0167262e-10 0)
(0.42886796 7.8575387e-10 0)
(0.42886796 6.7158058e-10 0)
(0.42886796 6.8017749e-10 0)
(0.42886796 4.905208e-10 0)
(0.42886796 4.7938297e-10 0)
(0.42886796 3.0190992e-10 0)
(0.42886796 3.1759955e-10 0)
(0.42886796 1.6623357e-10 0)
(0.42886796 2.0514619e-10 0)
(0.42886796 7.6368142e-11 0)
(0.42886796 1.3708558e-10 0)
(0.42886796 2.515686e-11 0)
(0.42886796 9.504922e-11 0)
(0.42886796 -4.9331869e-12 0)
(0.42886796 7.4226295e-11 0)
(0.42886796 -1.8217315e-11 0)
(0.42886796 6.0342552e-11 0)
(0.42886796 -2.8840361e-11 0)
(0.42886796 5.3833685e-11 0)
(0.42886796 -3.3638824e-11 0)
(0.42886796 4.7750507e-11 0)
(0.42886796 -3.8094007e-11 0)
(0.42886796 4.666319e-11 0)
(0.42886796 -3.8901737e-11 0)
(0.42886796 4.3759494e-11 0)
(0.42886796 -4.1094493e-11 0)
(0.42886796 4.4361167e-11 0)
(0.42886796 -4.0682037e-11 0)
(0.42886796 4.2374364e-11 0)
(0.42886796 -4.2176436e-11 0)
(0.42886796 4.351269e-11 0)
(0.42886796 -4.134428e-11 0)
(0.42886796 4.1857559e-11 0)
(0.42886796 -4.2582214e-11 0)
(0.42886796 4.3192021e-11 0)
(0.42886796 -4.1598587e-11 0)
(0.42886796 4.165503e-11 0)
(0.42886796 -4.274499e-11 0)
(0.42886796 4.3060204e-11 0)
(0.42886796 -4.1705092e-11 0)
(0.42886796 4.1569948e-11 0)
(0.42886796 -4.2811261e-11 0)
(0.42886796 4.3014265e-11 0)
(0.42886796 -4.1726855e-11 0)
(0.42886796 4.1579116e-11 0)
(0.42886796 -4.2759942e-11 0)
(0.42886796 4.312495e-11 0)
(0.42886796 -4.153111e-11 0)
(0.42886796 4.1899763e-11 0)
(0.42886796 -4.2248396e-11 0)
(0.42886796 4.3945203e-11 0)
(0.42886796 -4.0209206e-11 0)
(0.42886796 4.4072037e-11 0)
(0.42886796 -3.8631023e-11 0)
(0.42886796 5.0074649e-11 0)
(0.42886796 -3.0351004e-11 0)
(0.42886796 6.0435987e-11 0)
(0.42886796 -1.5397423e-11 0)
(0.42886796 8.7312548e-11 0)
(0.42886796 1.9800895e-11 0)
(0.42886796 1.3781818e-10 0)
(0.42886796 8.7984549e-11 0)
(0.42886796 2.3151302e-10 0)
(0.42886796 2.3724423e-10 0)
(0.42886796 5.4691247e-10 0)
(0.42886796 6.2162994e-10 0)
(0.42886796 1.0995063e-09 0)
(0.42886797 4.6635924e-10 0)
(0.42886796 -1.8704503e-10 0)
(0.42886797 -1.1552892e-09 0)
(0.42886795 -9.6918167e-09 0)
(0.42886796 -1.7906751e-08 0)
(0.43769967 0.00012104264 0)
(0.44103969 0.00048353259 0)
(0.44090983 0.00061209642 0)
(0.44127782 0.00054371839 0)
(0.4422735 0.00041651937 0)
(0.44310702 0.00029543354 0)
(0.44357226 0.00019304413 0)
(0.44381108 0.00011357982 0)
(0.44394216 5.9574831e-05 0)
(0.44401049 2.7828114e-05 0)
(0.44403937 1.1446016e-05 0)
(0.44404847 3.9467075e-06 0)
(0.44405031 9.6120926e-07 0)
(0.44405015 -1.2050636e-08 0)
(0.44404961 -1.9898259e-07 0)
(0.44404915 -1.6104326e-07 0)
(0.44404887 -9.6001786e-08 0)
(0.44404872 -5.0566483e-08 0)
(0.44404865 -2.5390393e-08 0)
(0.44404861 -1.2846631e-08 0)
(0.44404859 -6.6725603e-09 0)
(0.44404858 -3.5109698e-09 0)
(0.44404858 -1.6903301e-09 0)
(0.44404858 -6.3789372e-10 0)
(0.44404858 1.9380701e-11 0)
(0.44404858 3.5185124e-10 0)
(0.44404858 5.5312888e-10 0)
(0.44404858 5.7172475e-10 0)
(0.44404858 5.6889681e-10 0)
(0.44404858 4.8126808e-10 0)
(0.44404858 4.4072525e-10 0)
(0.44404858 3.3349674e-10 0)
(0.44404858 2.9182717e-10 0)
(0.44404858 2.0754137e-10 0)
(0.44404858 1.9710957e-10 0)
(0.44404858 1.2073857e-10 0)
(0.44404858 1.1735761e-10 0)
(0.44404858 6.0001076e-11 0)
(0.44404858 8.1872237e-11 0)
(0.44404858 2.5287025e-11 0)
(0.44404858 4.6256382e-11 1.8784329e-33)
(0.44404858 3.2203032e-12 0)
(0.44404858 4.076684e-11 0)
(0.44404858 -6.442093e-12 0)
(0.44404858 2.3986734e-11 0)
(0.44404858 -1.3079847e-11 0)
(0.44404858 2.9507282e-11 0)
(0.44404858 -1.4619718e-11 0)
(0.44404858 1.8121066e-11 0)
(0.44404858 -1.7514821e-11 0)
(0.44404858 2.6018385e-11 0)
(0.44404858 -1.7249673e-11 0)
(0.44404858 1.6107099e-11 0)
(0.44404858 -1.9068255e-11 0)
(0.44404858 2.4796646e-11 0)
(0.44404858 -1.8208205e-11 0)
(0.44404858 1.5353796e-11 0)
(0.44404858 -1.966363e-11 0)
(0.44404858 2.4322254e-11 0)
(0.44404858 -1.8583718e-11 0)
(0.44404858 1.5057971e-11 0)
(0.44404858 -1.9899124e-11 0)
(0.44404858 2.4132516e-11 0)
(0.44404858 -1.8736095e-11 0)
(0.44404858 1.493492e-11 0)
(0.44404858 -1.9998997e-11 0)
(0.44404858 2.4049584e-11 0)
(0.44404858 -1.8805674e-11 0)
(0.44404858 1.4875159e-11 0)
(0.44404858 -2.0051673e-11 0)
(0.44404858 2.4004455e-11 0)
(0.44404858 -1.8840289e-11 0)
(0.44404858 1.4860269e-11 0)
(0.44404858 -2.0032151e-11 0)
(0.44404858 2.4082932e-11 0)
(0.44404858 -1.8668367e-11 0)
(0.44404858 1.5174315e-11 0)
(0.44404858 -1.9500336e-11 0)
(0.44404858 2.494506e-11 0)
(0.44404858 -1.7302305e-11 0)
(0.44404858 1.7363762e-11 0)
(0.44404858 -1.5939367e-11 0)
(0.44404858 3.0821297e-11 0)
(0.44404858 -7.9548957e-12 0)
(0.44404858 3.2171602e-11 0)
(0.44404858 7.0382489e-12 0)
(0.44404858 6.6465029e-11 0)
(0.44404858 4.7782321e-11 0)
(0.44404858 1.1196113e-10 0)
(0.44404858 1.2054707e-10 0)
(0.44404858 2.2980204e-10 0)
(0.44404858 3.3971524e-10 0)
(0.44404858 6.0523497e-10 2.9597154e-35)
(0.44404858 8.2699562e-10 0)
(0.44404858 1.1101342e-09 0)
(0.44404859 8.7811998e-10 8.879145e-36)
(0.44404858 5.2496302e-10 0)
(0.44404859 -3.2203738e-11 0)
(0.44404856 -3.6446162e-09 0)
(0.44404857 -7.0385587e-09 0)
(0.43769974 -0.0001210511 0)
(0.44103964 -0.00048355782 0)
(0.44090979 -0.00061209927 0)
(0.44127783 -0.00054372099 0)
(0.44227353 -0.00041657462 0)
(0.44310704 -0.00029555783 0)
(0.44357225 -0.00019320354 0)
(0.44381106 -0.00011373293 0)
(0.44394214 -5.9699704e-05 0)
(0.44401046 -2.7919595e-05 0)
(0.44403934 -1.1507649e-05 0)
(0.44404844 -3.9834417e-06 0)
(0.44405028 -9.8006058e-07 0)
(0.44405012 4.7780097e-09 0)
(0.44404959 1.9815741e-07 0)
(0.44404913 1.63934e-07 0)
(0.44404885 1.0024938e-07 0)
(0.44404871 5.5437082e-08 0)
(0.44404864 2.9918732e-08 0)
(0.4440486 1.7148759e-08 0)
(0.44404859 1.0281777e-08 0)
(0.44404858 6.8237839e-09 0)
(0.44404858 4.3431457e-09 0)
(0.44404857 3.0401082e-09 0)
(0.44404857 1.8038528e-09 0)
(0.44404858 1.3471599e-09 0)
(0.44404858 6.687202e-10 0)
(0.44404858 5.9837606e-10 0)
(0.44404858 1.746083e-10 0)
(0.44404858 3.2048319e-10 0)
(0.44404858 2.5566642e-11 0)
(0.44404858 2.1807386e-10 0)
(0.44404858 -4.9689974e-11 0)
(0.44404858 1.833474e-10 0)
(0.44404858 -6.9502964e-11 0)
(0.44404858 1.5542411e-10 0)
(0.44404858 -9.6477657e-11 0)
(0.44404858 1.5088182e-10 0)
(0.44404858 -9.6215879e-11 0)
(0.44404858 1.3467352e-10 0)
(0.44404858 -1.1469626e-10 -1.8784329e-33)
(0.44404858 1.3532965e-10 0)
(0.44404858 -1.0967083e-10 0)
(0.44404858 1.2302267e-10 0)
(0.44404858 -1.2373536e-10 0)
(0.44404858 1.2796863e-10 0)
(0.44404858 -1.1464002e-10 0)
(0.44404858 1.193284e-10 0)
(0.44404858 -1.2630398e-10 0)
(0.44404858 1.2614786e-10 0)
(0.44404858 -1.1589562e-10 0)
(0.44404858 1.1846246e-10 0)
(0.44404858 -1.268872e-10 0)
(0.44404858 1.2574536e-10 0)
(0.44404858 -1.161833e-10 0)
(0.44404858 1.1824387e-10 0)
(0.44404858 -1.2705716e-10 0)
(0.44404858 1.256094e-10 0)
(0.44404858 -1.1629429e-10 0)
(0.44404858 1.1815073e-10 0)
(0.44404858 -1.2713484e-10 0)
(0.44404858 1.2554467e-10 0)
(0.44404858 -1.1634948e-10 0)
(0.44404858 1.1810351e-10 0)
(0.44404858 -1.2717494e-10 0)
(0.44404858 1.255104e-10 0)
(0.44404858 -1.1637981e-10 0)
(0.44404858 1.1807424e-10 0)
(0.44404858 -1.2720585e-10 0)
(0.44404858 1.2547617e-10 0)
(0.44404858 -1.1641821e-10 0)
(0.44404858 1.1803607e-10 0)
(0.44404858 -1.2723371e-10 0)
(0.44404858 1.2548025e-10 0)
(0.44404858 -1.1635138e-10 0)
(0.44404858 1.1821379e-10 0)
(0.44404858 -1.2688157e-10 0)
(0.44404858 1.2609199e-10 0)
(0.44404858 -1.1537535e-10 0)
(0.44404858 1.1974677e-10 0)
(0.44404858 -1.2446159e-10 0)
(0.44404858 1.2996953e-10 0)
(0.44404858 -1.0916823e-10 0)
(0.44404858 1.2980886e-10 0)
(0.44404858 -1.0875118e-10 0)
(0.44404858 1.5456353e-10 0)
(0.44404858 -7.3920676e-11 0)
(0.44404858 1.8353818e-10 0)
(0.44404858 -3.45312e-11 0)
(0.44404858 2.617141e-10 0)
(0.44404858 1.2090655e-10 0)
(0.44404858 5.1463019e-10 0)
(0.44404858 5.138025e-10 -2.9597154e-35)
(0.44404858 1.05412e-09 0)
(0.44404858 9.3002072e-10 0)
(0.44404859 1.4865998e-09 -8.879145e-36)
(0.44404858 1.6772897e-09 0)
(0.44404859 1.7433967e-09 0)
(0.44404856 4.5529767e-09 0)
(0.44404857 7.484568e-09 0)
(0.42417635 -0.0003765393 0)
(0.42729982 -0.001423602 0)
(0.4270932 -0.0017404564 0)
(0.42723606 -0.0014970538 0)
(0.42789929 -0.0011141313 0)
(0.42843134 -0.00077081447 0)
(0.42868306 -0.00049248379 0)
(0.42878634 -0.00028326324 0)
(0.428837 -0.00014490513 0)
(0.42886202 -6.5710117e-05 0)
(0.42887052 -2.5960356e-05 0)
(0.42887137 -8.3137138e-06 0)
(0.42887037 -1.545802e-06 0)
(0.42886943 4.4023827e-07 0)
(0.42886878 6.9372218e-07 0)
(0.42886838 5.0451834e-07 0)
(0.42886816 2.9836969e-07 0)
(0.42886805 1.6265037e-07 0)
(0.42886799 8.7411201e-08 0)
(0.42886797 4.8267864e-08 0)
(0.42886795 2.7954288e-08 0)
(0.42886795 1.6679996e-08 0)
(0.42886795 1.0062351e-08 0)
(0.42886795 5.8632774e-09 0)
(0.42886795 3.3214404e-09 0)
(0.42886795 1.6798162e-09 0)
(0.42886795 7.8610597e-10 0)
(0.42886796 1.9740559e-10 0)
(0.42886796 -1.1648645e-12 0)
(0.42886796 -1.4810891e-10 0)
(0.42886796 -1.2962343e-10 0)
(0.42886796 -1.7704619e-10 0)
(0.42886796 -9.0151962e-11 0)
(0.42886796 -1.0735253e-10 0)
(0.42886796 -3.5411984e-11 0)
(0.42886796 -7.9226331e-11 0)
(0.42886796 -5.5547455e-12 0)
(0.42886796 -4.122807e-11 0)
(0.42886796 1.1637393e-11 0)
(0.42886796 -4.592571e-11 0)
(0.42886796 1.6970659e-11 0)
(0.42886796 -2.5611602e-11 0)
(0.42886796 2.2826544e-11 0)
(0.42886796 -3.8535857e-11 0)
(0.42886796 2.1703976e-11 0)
(0.42886796 -2.1982828e-11 0)
(0.42886796 2.5843516e-11 0)
(0.42886796 -3.6051099e-11 0)
(0.42886796 2.3740188e-11 0)
(0.42886796 -2.0266906e-11 0)
(0.42886796 2.7164933e-11 0)
(0.42886796 -3.4923334e-11 0)
(0.42886796 2.4709976e-11 0)
(0.42886796 -1.9475077e-11 0)
(0.42886796 2.776646e-11 0)
(0.42886796 -3.4442807e-11 0)
(0.42886796 2.5100611e-11 0)
(0.42886796 -1.917294e-11 0)
(0.42886796 2.7987851e-11 0)
(0.42886796 -3.4272463e-11 0)
(0.42886796 2.5235747e-11 0)
(0.42886796 -1.907046e-11 0)
(0.42886796 2.8061795e-11 0)
(0.42886796 -3.4215469e-11 0)
(0.42886796 2.5281869e-11 0)
(0.42886796 -1.9033942e-11 0)
(0.42886796 2.8089229e-11 0)
(0.42886796 -3.4195157e-11 0)
(0.42886796 2.5295501e-11 0)
(0.42886796 -1.9029231e-11 0)
(0.42886796 2.8085244e-11 0)
(0.42886796 -3.4203399e-11 0)
(0.42886796 2.5293644e-11 0)
(0.42886796 -1.9006476e-11 0)
(0.42886796 2.8162092e-11 0)
(0.42886796 -3.4025338e-11 0)
(0.42886796 2.5636964e-11 0)
(0.42886796 -1.8440022e-11 0)
(0.42886796 2.9029447e-11 0)
(0.42886796 -3.2705392e-11 0)
(0.42886796 2.7654713e-11 0)
(0.42886796 -1.5412701e-11 0)
(0.42886796 3.3632592e-11 0)
(0.42886796 -2.5584727e-11 0)
(0.42886796 3.8723414e-11 0)
(0.42886796 8.8755804e-13 0)
(0.42886796 5.7954467e-11 0)
(0.42886796 1.0552569e-11 0)
(0.42886796 9.0059581e-11 0)
(0.42886796 9.2537108e-11 0)
(0.42886796 2.3163461e-10 0)
(0.42886796 3.2205356e-10 0)
(0.42886796 5.3512846e-10 0)
(0.42886797 7.4666403e-10 0)
(0.42886796 7.2158279e-10 0)
(0.42886797 1.4539203e-09 0)
(0.42886796 2.059258e-09 0)
(0.42886797 2.5159905e-09 0)
(0.42886795 1.0443078e-08 0)
(0.42886796 1.8308871e-08 0)
(0.38795684 -0.00063022081 0)
(0.39036425 -0.002139737 0)
(0.38973522 -0.0024287418 0)
(0.38927783 -0.0019455156 0)
(0.38926036 -0.0013571107 0)
(0.38925029 -0.00088890527 0)
(0.38915483 -0.00054069684 0)
(0.38905688 -0.00029532729 0)
(0.38899739 -0.00014210058 0)
(0.38896756 -5.9497145e-05 0)
(0.38895262 -2.0747895e-05 0)
(0.38894532 -4.9034898e-06 0)
(0.38894219 4.019801e-07 0)
(0.38894109 1.4647406e-06 0)
(0.38894078 1.2178171e-06 0)
(0.38894069 7.7307965e-07 0)
(0.38894068 4.3904048e-07 0)
(0.38894068 2.3799266e-07 0)
(0.38894068 1.2848445e-07 0)
(0.38894069 7.028252e-08 0)
(0.3889407 3.9551888e-08 0)
(0.3889407 2.2170195e-08 0)
(0.38894071 1.2503222e-08 0)
(0.38894071 6.4832603e-09 0)
(0.38894072 3.3249716e-09 0)
(0.38894072 1.1706824e-09 0)
(0.38894072 3.5840443e-10 0)
(0.38894072 -3.6172538e-10 0)
(0.38894072 -2.890079e-10 0)
(0.38894073 -5.7131665e-10 0)
(0.38894073 -3.0111968e-10 0)
(0.38894073 -4.7687535e-10 0)
(0.38894073 -1.4691442e-10 0)
(0.38894073 -3.3255315e-10 0)
(0.38894073 -4.1336374e-11 0)
(0.38894073 -2.4755195e-10 0)
(0.38894073 4.0478126e-11 0)
(0.38894073 -1.871167e-10 0)
(0.38894073 6.596944e-11 0)
(0.38894073 -1.6680642e-10 0)
(0.38894073 9.8065259e-11 0)
(0.38894073 -1.4407797e-10 0)
(0.38894073 9.7170695e-11 0)
(0.38894073 -1.425049e-10 0)
(0.38894073 1.175596e-10 0)
(0.38894073 -1.2899107e-10 0)
(0.38894073 1.0890892e-10 0)
(0.38894073 -1.3315086e-10 0)
(0.38894073 1.2505176e-10 0)
(0.38894073 -1.2308041e-10 0)
(0.38894073 1.137041e-10 0)
(0.38894073 -1.2935985e-10 0)
(0.38894073 1.2800091e-10 0)
(0.38894073 -1.2078036e-10 0)
(0.38894073 1.1553978e-10 0)
(0.38894073 -1.2792403e-10 0)
(0.38894073 1.2909957e-10 0)
(0.38894073 -1.1993628e-10 0)
(0.38894073 1.1620211e-10 0)
(0.38894073 -1.27412e-10 0)
(0.38894073 1.2948731e-10 0)
(0.38894073 -1.1964019e-10 0)
(0.38894073 1.1643412e-10 0)
(0.38894073 -1.2723156e-10 0)
(0.38894073 1.2962699e-10 0)
(0.38894073 -1.1953046e-10 0)
(0.38894073 1.1652226e-10 0)
(0.38894073 -1.2716315e-10 0)
(0.38894073 1.2967545e-10 0)
(0.38894073 -1.195002e-10 0)
(0.38894073 1.1653797e-10 0)
(0.38894073 -1.2715487e-10 0)
(0.38894073 1.2969403e-10 0)
(0.38894073 -1.1944273e-10 0)
(0.38894073 1.1668132e-10 0)
(0.38894073 -1.2686791e-10 0)
(0.38894073 1.3019728e-10 0)
(0.38894073 -1.1863289e-10 0)
(0.38894073 1.1792643e-10 0)
(0.38894073 -1.250578e-10 0)
(0.38894073 1.3277453e-10 0)
(0.38894073 -1.1485126e-10 0)
(0.38894073 1.2360721e-10 0)
(0.38894073 -1.165442e-10 0)
(0.38894073 1.451391e-10 0)
(0.38894073 -9.6742294e-11 0)
(0.38894073 1.5018678e-10 0)
(0.38894073 -8.2692596e-11 0)
(0.38894073 1.9328562e-10 0)
(0.38894073 -1.8195164e-11 0)
(0.38894073 2.7135615e-10 0)
(0.38894073 1.1311105e-10 0)
(0.38894073 3.7671858e-10 0)
(0.38894073 2.1492007e-10 0)
(0.38894073 1.6662846e-10 0)
(0.38894073 6.9174835e-10 0)
(0.38894073 8.0302899e-10 0)
(0.38894074 1.2942772e-09 0)
(0.38894072 1.0074953e-08 0)
(0.38894075 1.9073122e-08 0)
(0.30780529 -0.00074215074 0)
(0.30862999 -0.0021207174 0)
(0.30708406 -0.0021125481 0)
(0.3057764 -0.0014755645 0)
(0.30502182 -0.00090470547 0)
(0.3045321 -0.00053358822 0)
(0.30418872 -0.00029561926 0)
(0.30397718 -0.00014449757 0)
(0.30386882 -5.9216753e-05 0)
(0.30382113 -1.8765238e-05 0)
(0.30380258 -2.8750132e-06 0)
(0.30379656 1.9542323e-06 0)
(0.30379544 2.5713423e-06 0)
(0.30379588 1.9648312e-06 0)
(0.30379653 1.23521e-06 0)
(0.303797 7.0337144e-07 0)
(0.30379729 3.8150866e-07 0)
(0.30379746 2.032788e-07 0)
(0.30379755 1.0801473e-07 0)
(0.30379761 5.7805931e-08 0)
(0.30379764 3.0832537e-08 0)
(0.30379766 1.6315777e-08 0)
(0.30379767 8.1699831e-09 0)
(0.30379768 3.86995e-09 0)
(0.30379769 1.3950069e-09 0)
(0.30379769 2.914213e-10 0)
(0.30379769 -3.6869131e-10 0)
(0.30379769 -4.4353024e-10 0)
(0.3037977 -5.8008773e-10 0)
(0.3037977 -4.2777099e-10 0)
(0.3037977 -4.6045161e-10 0)
(0.3037977 -2.5781857e-10 0)
(0.3037977 -2.999698e-10 0)
(0.3037977 -1.3258356e-10 0)
(0.3037977 -2.0450407e-10 0)
(0.3037977 -4.3295669e-11 0)
(0.3037977 -1.3324293e-10 0)
(0.3037977 -7.2117029e-12 0)
(0.3037977 -1.1015365e-10 0)
(0.3037977 2.5602538e-11 0)
(0.3037977 -8.2125168e-11 0)
(0.3037977 3.0876069e-11 0)
(0.3037977 -8.1614013e-11 0)
(0.3037977 4.818681e-11 0)
(0.3037977 -6.361291e-11 0)
(0.3037977 4.5071228e-11 0)
(0.3037977 -7.0525429e-11 0)
(0.3037977 5.6907669e-11 0)
(0.3037977 -5.6702023e-11 0)
(0.3037977 5.0470552e-11 0)
(0.3037977 -6.6128778e-11 0)
(0.3037977 6.0315813e-11 0)
(0.3037977 -5.4101567e-11 0)
(0.3037977 5.2487752e-11 0)
(0.3037977 -6.4509272e-11 0)
(0.3037977 6.1567397e-11 0)
(0.3037977 -5.3158583e-11 0)
(0.3037977 5.3213885e-11 0)
(0.3037977 -6.3933312e-11 0)
(0.3037977 6.200896e-11 0)
(0.3037977 -5.2827793e-11 0)
(0.3037977 5.3467398e-11 0)
(0.3037977 -6.3731968e-11 0)
(0.3037977 6.2165248e-11 0)
(0.3037977 -5.2707786e-11 0)
(0.3037977 5.3562953e-11 0)
(0.3037977 -6.3652802e-11 0)
(0.3037977 6.222911e-11 0)
(0.3037977 -5.2659184e-11 0)
(0.3037977 5.3600772e-11 0)
(0.3037977 -6.3621428e-11 0)
(0.3037977 6.2261886e-11 0)
(0.3037977 -5.26109e-11 0)
(0.3037977 5.3690541e-11 0)
(0.3037977 -6.3454431e-11 0)
(0.3037977 6.2551533e-11 0)
(0.3037977 -5.2148869e-11 0)
(0.3037977 5.4407321e-11 0)
(0.3037977 -6.2387111e-11 0)
(0.3037977 6.4057216e-11 0)
(0.3037977 -5.0073852e-11 0)
(0.3037977 5.7413659e-11 0)
(0.3037977 -5.8022928e-11 0)
(0.3037977 7.0391443e-11 0)
(0.3037977 -4.1393729e-11 0)
(0.3037977 7.0488617e-11 0)
(0.3037977 -4.06426e-11 0)
(0.3037977 9.2507004e-11 0)
(0.3037977 -8.3288603e-12 0)
(0.3037977 1.195793e-10 0)
(0.3037977 1.6897139e-11 0)
(0.3037977 1.3392336e-10 0)
(0.3037977 -8.5575825e-11 0)
(0.3037977 -1.1467463e-10 0)
(0.3037977 -5.5225252e-10 0)
(0.3037977 -4.1461671e-10 0)
(0.3037977 -1.4598179e-09 0)
(0.3037977 -1.7151771e-09 0)
(0.30379769 2.0874334e-09 0)
(0.30379772 8.7601814e-09 0)
(0.14675719 -0.0004380859 0)
(0.14575585 -0.00095310402 0)
(0.14391336 -0.00077637642 0)
(0.14262881 -0.0004338531 0)
(0.14192628 -0.00021394533 0)
(0.14153751 -0.00010663139 0)
(0.14131617 -5.0103283e-05 0)
(0.14120213 -1.8281249e-05 0)
(0.14115416 -3.143195e-06 0)
(0.14113923 1.9440089e-06 0)
(0.14113726 2.6557661e-06 0)
(0.14113913 2.0585192e-06 0)
(0.14114148 1.3510249e-06 0)
(0.14114327 8.0663712e-07 0)
(0.14114441 4.4916783e-07 0)
(0.14114507 2.3988233e-07 0)
(0.14114542 1.2547567e-07 0)
(0.14114562 6.5260382e-08 0)
(0.14114572 3.3625134e-08 0)
(0.14114577 1.7325551e-08 0)
(0.1411458 8.5898057e-09 0)
(0.14114582 4.2129923e-09 0)
(0.14114583 1.7424243e-09 0)
(0.14114583 6.9876934e-10 0)
(0.14114583 -9.1437099e-12 0)
(0.14114583 -1.0336563e-10 0)
(0.14114583 -2.9691733e-10 0)
(0.14114584 -1.6171369e-10 0)
(0.14114583 -2.7086898e-10 0)
(0.14114583 -1.0145277e-10 0)
(0.14114583 -1.9399966e-10 0)
(0.14114583 -2.0709756e-11 0)
(0.14114583 -1.3679411e-10 0)
(0.14114583 2.1616261e-11 0)
(0.14114583 -1.0003994e-10 0)
(0.14114583 5.3398944e-11 0)
(0.14114583 -8.5533126e-11 0)
(0.14114583 5.5500171e-11 0)
(0.14114583 -7.5862646e-11 0)
(0.14114583 6.8064745e-11 0)
(0.14114583 -7.382574e-11 0)
(0.14114583 6.3412608e-11 0)
(0.14114583 -6.941847e-11 0)
(0.14114583 7.2010086e-11 0)
(0.14114583 -7.152024e-11 0)
(0.14114583 6.5053306e-11 0)
(0.14114583 -6.8155431e-11 0)
(0.14114583 7.2863437e-11 0)
(0.14114583 -7.0953758e-11 0)
(0.14114583 6.5459035e-11 0)
(0.14114583 -6.7926824e-11 0)
(0.14114583 7.3044254e-11 0)
(0.14114583 -7.0800944e-11 0)
(0.14114583 6.5572589e-11 0)
(0.14114583 -6.7862034e-11 0)
(0.14114583 7.309441e-11 0)
(0.14114583 -7.0756941e-11 0)
(0.14114583 6.5604482e-11 0)
(0.14114583 -6.7845329e-11 0)
(0.14114583 7.31065e-11 0)
(0.14114583 -7.0745301e-11 0)
(0.14114583 6.5612437e-11 0)
(0.14114583 -6.7841538e-11 0)
(0.14114583 7.3109985e-11 0)
(0.14114583 -7.0740513e-11 0)
(0.14114583 6.5617925e-11 0)
(0.14114583 -6.7835214e-11 0)
(0.14114583 7.3118707e-11 0)
(0.14114583 -7.0728761e-11 0)
(0.14114583 6.5633642e-11 0)
(0.14114583 -6.7815291e-11 0)
(0.14114583 7.3144987e-11 0)
(0.14114583 -7.0694673e-11 0)
(0.14114583 6.5678997e-11 0)
(0.14114583 -6.775453e-11 0)
(0.14114583 7.3232585e-11 0)
(0.14114583 -7.057068e-11 0)
(0.14114583 6.5851985e-11 0)
(0.14114583 -6.7519173e-11 0)
(0.14114583 7.3568567e-11 0)
(0.14114583 -7.0104811e-11 0)
(0.14114583 6.6449306e-11 0)
(0.14114583 -6.6783393e-11 0)
(0.14114583 7.4499613e-11 0)
(0.14114583 -6.8856084e-11 0)
(0.14114583 6.818736e-11 0)
(0.14114583 -6.4582803e-11 0)
(0.14114583 7.8008591e-11 0)
(0.14114583 -6.1217103e-11 0)
(0.14114583 7.8772419e-11 0)
(0.14114583 -6.3394996e-11 0)
(0.14114583 4.9482572e-11 0)
(0.14114583 -1.8471134e-10 0)
(0.14114583 -1.6001265e-10 0)
(0.14114583 -4.4961538e-10 0)
(0.14114583 -6.1134829e-10 0)