/*--------------------------------*- C++ -*----------------------------------*\
  =========                 |
  \\      /  F ield         | OpenFOAM: The Open Source CFD Toolbox
   \\    /   O peration     | Website:  https://openfoam.org
    \\  /    A nd           | Version:  6
     \\/     M anipulation  |
\*---------------------------------------------------------------------------*/
FoamFile
{
    version     2.0;
    format      ascii;
    class       volScalarField;
    location    "96";
    object      pMean;
}
// * * * * * * * * * * * * * * * * * * * * * * * * * * * * * * * * * * * * * //

dimensions      [0 2 -2 0 0 0 0];

internalField   nonuniform List<scalar> 
9200
(
-0.41121905
-0.39861996
-0.38733539
-0.37738858
-0.36764283
-0.35809122
-0.3488215
-0.33979558
-0.33093868
-0.32217484
-0.31343004
-0.30463704
-0.29574253
-0.28671409
-0.27754987
-0.26829511
-0.25903616
-0.24986849
-0.2417803
-0.23890682
-0.43011642
-0.41507
-0.40185482
-0.39037224
-0.37921755
-0.3683548
-0.357862
-0.34767169
-0.33767988
-0.32778818
-0.31790725
-0.30796226
-0.29790025
-0.28769533
-0.27735308
-0.26691324
-0.25642059
-0.24588809
-0.235982
-0.2288168
-0.44927384
-0.43178229
-0.4166986
-0.4037565
-0.39124577
-0.3790838
-0.36732879
-0.35587876
-0.34460149
-0.33338312
-0.32213083
-0.31077762
-0.29928815
-0.28766046
-0.27592427
-0.2641353
-0.25234728
-0.24058058
-0.22923218
-0.21941414
-0.46821502
-0.44831876
-0.43144223
-0.41710216
-0.40324784
-0.38973535
-0.37659797
-0.36370224
-0.3508992
-0.33807794
-0.32516501
-0.31212572
-0.29896547
-0.28572562
-0.2724752
-0.25929968
-0.24627676
-0.23345124
-0.22109243
-0.20995201
-0.48626622
-0.46408896
-0.44554405
-0.42988056
-0.41468332
-0.39973905
-0.38505974
-0.37049511
-0.35590327
-0.3412054
-0.32637762
-0.31144457
-0.29647288
-0.2815594
-0.26681669
-0.25235857
-0.23828002
-0.22463878
-0.21162441
-0.19975818
-0.50256185
-0.47833192
-0.45829966
-0.44139812
-0.42484282
-0.40835509
-0.39194238
-0.37546697
-0.35883047
-0.34202285
-0.32510112
-0.3081709
-0.29136995
-0.27484898
-0.25875342
-0.24320942
-0.22830964
-0.21410317
-0.20071481
-0.18849287
-0.51606113
-0.49012389
-0.46884511
-0.4508017
-0.4328625
-0.4147037
-0.39636021
-0.37775037
-0.35886433
-0.33979862
-0.32071603
-0.30181293
-0.28329343
-0.26534623
-0.24812763
-0.23175248
-0.21628847
-0.20175563
-0.18821683
-0.17587977
-0.52557253
-0.49840479
-0.47619286
-0.45712935
-0.43779205
-0.41785029
-0.39741247
-0.37650638
-0.35525786
-0.33390165
-0.31271939
-0.29199371
-0.27197731
-0.25287194
-0.23481856
-0.2178977
-0.20213413
-0.18750628
-0.1740166
-0.16175303
-0.52973359
-0.50187282
-0.47902696
-0.45901713
-0.43823464
-0.41640773
-0.39377952
-0.37054285
-0.34699472
-0.32351858
-0.30050366
-0.27829285
-0.2571551
-0.23727399
-0.21875006
-0.20161271
-0.18583497
-0.1713511
-0.15810759
-0.14608913
-0.52718777
-0.49909485
-0.47577967
-0.4547833
-0.43246275
-0.40869009
-0.38390632
-0.35850983
-0.33297602
-0.30781418
-0.28347979
-0.26032889
-0.23860435
-0.21844043
-0.19987928
-0.18289285
-0.16740472
-0.15331191
-0.1405124
-0.12890028
-0.28757066
-0.29169005
-0.29333406
-0.29332124
-0.29229785
-0.29041869
-0.28778965
-0.28451192
-0.28066295
-0.27630264
-0.27148066
-0.26623993
-0.26061872
-0.2546522
-0.24837377
-0.24181753
-0.23501988
-0.22800671
-0.22078143
-0.21343954
-0.29065836
-0.29432051
-0.29563658
-0.29539684
-0.29418689
-0.29215288
-0.28939844
-0.28601992
-0.28209046
-0.2776666
-0.27279517
-0.26751662
-0.26186699
-0.25587916
-0.24958358
-0.243013
-0.23621113
-0.22920213
-0.22187797
-0.21421126
-0.2966651
-0.29943933
-0.3001199
-0.29943674
-0.29786163
-0.29552491
-0.29252555
-0.28895064
-0.28486495
-0.28031838
-0.27535209
-0.27000151
-0.26429823
-0.25827071
-0.25194403
-0.24534739
-0.23853534
-0.23153134
-0.22403067
-0.21575533
-0.30529459
-0.30680714
-0.30657289
-0.3052382
-0.30311965
-0.30032744
-0.29695479
-0.29307635
-0.28874537
-0.28400244
-0.27888061
-0.27340807
-0.26760997
-0.26150833
-0.25512078
-0.2484705
-0.2416227
-0.23460634
-0.22687221
-0.21775413
-0.31617447
-0.31612384
-0.31473296
-0.31255221
-0.30971571
-0.30631265
-0.30243095
-0.29813115
-0.29345301
-0.28842616
-0.28307372
-0.27741433
-0.27146451
-0.26523847
-0.25874514
-0.2519987
-0.24507074
-0.23800419
-0.23000189
-0.2198752
-0.32891965
-0.32707855
-0.32433034
-0.32112752
-0.31740774
-0.31324126
-0.30871297
-0.30386963
-0.29873678
-0.29333051
-0.28766158
-0.2817379
-0.27556603
-0.26915091
-0.26249193
-0.25559178
-0.24852075
-0.24134128
-0.23304365
-0.22181471
-0.34318831
-0.33939358
-0.33512752
-0.33075055
-0.32599926
-0.32092918
-0.31562619
-0.31012292
-0.30442822
-0.29854405
-0.29246808
-0.28619563
-0.27972167
-0.27304096
-0.26614373
-0.25902143
-0.25173693
-0.24437508
-0.23577945
-0.22346538
-0.35871401
-0.3528505
-0.34694432
-0.34127278
-0.33537169
-0.3292854
-0.3231012
-0.31683742
-0.31048651
-0.30403448
-0.2974633
-0.290753
-0.28388427
-0.27683958
-0.26959987
-0.26214881
-0.25454773
-0.24692755
-0.23810217
-0.2249286
-0.37530363
-0.36727908
-0.35963426
-0.35257297
-0.34542667
-0.33822789
-0.3310676
-0.32394971
-0.3168479
-0.3097296
-0.30255817
-0.29529496
-0.28790187
-0.28034192
-0.27257499
-0.2645595
-0.2563241
-0.24798336
-0.23835632
-0.22404307
-0.39282684
-0.3825366
-0.37304686
-0.36449275
-0.35599122
-0.34756299
-0.33930291
-0.33119891
-0.32320429
-0.31526733
-0.30733369
-0.29934909
-0.29126261
-0.28302696
-0.27459337
-0.26590719
-0.25692206
-0.24744971
-0.23592314
-0.21943582
-0.20514135
-0.1948877
-0.18470325
-0.17467774
-0.16474906
-0.15495643
-0.14535896
-0.13599429
-0.12689053
-0.1180746
-0.10957041
-0.10139728
-0.093570545
-0.086102094
-0.079000575
-0.072271474
-0.065917332
-0.059937959
-0.054330637
-0.049090319
-0.044209841
-0.039680141
-0.03549048
-0.031628678
-0.02808134
-0.024834087
-0.021871782
-0.019178753
-0.016738995
-0.014536373
-0.012554799
-0.010778401
-0.0091916724
-0.0077796063
-0.0065278163
-0.0054226431
-0.0044512607
-0.0036017528
-0.0028632869
-0.0022259877
-0.0016819021
-0.0012225758
-0.00084777347
-0.00053981571
-0.00034489533
-0.00013177714
-0.00031922263
0.00024961382
-0.0019157268
0.0030716757
-0.2066644
-0.19594809
-0.18561987
-0.17559036
-0.16561863
-0.15576795
-0.14612055
-0.13670987
-0.12756062
-0.11870047
-0.11015389
-0.10194009
-0.094074313
-0.08656852
-0.07943141
-0.072668493
-0.066282325
-0.060272725
-0.054636972
-0.049370005
-0.044464629
-0.039911743
-0.035700563
-0.031818851
-0.028253148
-0.024989006
-0.022011217
-0.01930403
-0.016851364
-0.014637004
-0.012644783
-0.010858752
-0.0092633259
-0.0078434244
-0.0065845883
-0.005473089
-0.0044960337
-0.0036414428
-0.0028984232
-0.0022570415
-0.0017092884
-0.001246655
-0.00086883795
-0.0005581346
-0.00036047924
-0.00014514606
-0.00032841108
0.00023937164
-0.0019056842
0.0030418413
-0.20971953
-0.19803825
-0.18743215
-0.17744182
-0.16740373
-0.15744262
-0.14770149
-0.13820362
-0.1289652
-0.12001653
-0.11138397
-0.10308665
-0.095139865
-0.087555975
-0.080343958
-0.073509506
-0.067055317
-0.060981322
-0.055284862
-0.049960895
-0.045002212
-0.040399663
-0.036142385
-0.032218036
-0.028613036
-0.025312795
-0.022301954
-0.019564598
-0.01708448
-0.01484521
-0.012830451
-0.011024078
-0.0094103389
-0.0079739869
-0.0067004028
-0.005575704
-0.0045868511
-0.0037217242
-0.0029692977
-0.0023195107
-0.0017642324
-0.0012948349
-0.00091087614
-0.00059458673
-0.00039141443
-0.00017156423
-0.00034653408
0.00021930915
-0.0018856301
0.0029827132
-0.21396424
-0.20077797
-0.18978175
-0.17996083
-0.16988678
-0.15979022
-0.1499389
-0.14033899
-0.13098887
-0.12192451
-0.11317702
-0.10476589
-0.096706777
-0.089013009
-0.081694381
-0.074757139
-0.068204418
-0.062036504
-0.056250996
-0.050843016
-0.045805444
-0.041129146
-0.036803218
-0.032815227
-0.029151456
-0.02579715
-0.022736748
-0.019954121
-0.017432783
-0.015156104
-0.013107493
-0.011270576
-0.0096293486
-0.0081683171
-0.006872623
-0.0057281522
-0.0047216433
-0.0038407645
-0.0030742887
-0.0024119619
-0.0018454687
-0.0013660001
-0.0009729062
-0.00064831222
-0.00043694544
-0.00021038221
-0.00037304099
0.00018992173
-0.0018556526
0.0028954781
-0.21897321
-0.20374694
-0.19226796
-0.18282189
-0.1728054
-0.16258097
-0.15263125
-0.14294491
-0.13348691
-0.12430057
-0.11542682
-0.106887
-0.098697496
-0.090873359
-0.083426034
-0.07636296
-0.069688201
-0.063402805
-0.057504973
-0.051990269
-0.046851873
-0.042080835
-0.037666332
-0.033595921
-0.029855802
-0.026431075
-0.023305982
-0.020464157
-0.017888849
-0.015563135
-0.013470121
-0.011593118
-0.0099158059
-0.0084223762
-0.0070976609
-0.0059272452
-0.0048975777
-0.0039960482
-0.0032111646
-0.0025324176
-0.0019512477
-0.0014586057
-0.0010535659
-0.00071811503
-0.00049602515
-0.00026068919
-0.00040719364
0.00015195824
-0.0018160638
0.0027820178
-0.2242316
-0.20654652
-0.19452016
-0.1856851
-0.17588563
-0.16558188
-0.15556612
-0.14583401
-0.13630013
-0.12700906
-0.11801649
-0.1093494
-0.10102586
-0.093063274
-0.085475723
-0.078272785
-0.071460173
-0.065040283
-0.059012417
-0.053373001
-0.048115859
-0.043232498
-0.038712391
-0.03454325
-0.030711313
-0.027201613
-0.023998248
-0.021084639
-0.018443766
-0.016058402
-0.013911314
-0.01198546
-0.010264153
-0.008731213
-0.0073711056
-0.0061690542
-0.0051111568
-0.0041844648
-0.0033771621
-0.0026784263
-0.0020793981
-0.001570733
-0.0011511637
-0.00080251076
-0.00056735658
-0.00032136012
-0.00044809181
0.00010633792
-0.0017673185
0.0026447754
-0.22923815
-0.20892724
-0.19627371
-0.18821014
-0.17885781
-0.16860115
-0.1585701
-0.14883997
-0.13928199
-0.12992523
-0.12083804
-0.11205855
-0.10360929
-0.095510738
-0.087780512
-0.080431462
-0.073471908
-0.06690634
-0.060735788
-0.054958072
-0.049568098
-0.044558187
-0.039918388
-0.035636792
-0.031699842
-0.028092631
-0.024799196
-0.021802795
-0.019086171
-0.016631791
-0.014422077
-0.012439604
-0.010667282
-0.0090885184
-0.0076873618
-0.0064486233
-0.0053579971
-0.0044021429
-0.0035688682
-0.0028469853
-0.002227284
-0.0017000746
-0.0012636853
-0.00089975191
-0.00064943076
-0.00039111037
-0.00049472278
5.4051574e-05
-0.0017099665
0.0024865884
-0.2336719
-0.21123834
-0.19773825
-0.19020728
-0.18149286
-0.17152487
-0.16157071
-0.151878
-0.14234132
-0.13296382
-0.12381318
-0.11494112
-0.10637918
-0.09815233
-0.090282262
-0.082785958
-0.075675251
-0.068957451
-0.062635898
-0.056710312
-0.051177113
-0.046029791
-0.041259266
-0.036854246
-0.032801565
-0.02908652
-0.025693196
-0.022604764
-0.019803774
-0.017272417
-0.014992771
-0.012947021
-0.011117654
-0.0094876341
-0.008040557
-0.0067607803
-0.0056335511
-0.0046450924
-0.0037827896
-0.0030350441
-0.0023922492
-0.0018443255
-0.0013891371
-0.0010081268
-0.00074078407
-0.00046871241
-0.00054613696
-3.9916206e-06
-0.0016446802
0.0023106221
-0.23520122
-0.21360689
-0.19950576
-0.19158519
-0.18335687
-0.17396968
-0.16428922
-0.1547139
-0.14526393
-0.13593708
-0.12678517
-0.11786859
-0.10923117
-0.10090483
-0.092916161
-0.085287067
-0.078033916
-0.071167833
-0.064695351
-0.058618873
-0.052937038
-0.047645125
-0.042735457
-0.038197802
-0.034019759
-0.030187132
-0.026684288
-0.023494497
-0.02060025
-0.017983558
-0.015626215
-0.013510046
-0.011617126
-0.0099299662
-0.0084316856
-0.0071061558
-0.0059381362
-0.0049133676
-0.0040187653
-0.0032422697
-0.0025738264
-0.0020029165
-0.0015268756
-0.0011269363
-0.0008406978
-0.00055339324
-0.00060176015
-6.6739033e-05
-0.0015726886
0.0021210448
-0.22585103
-0.21313356
-0.20096306
-0.19174792
-0.18352736
-0.17495422
-0.16590525
-0.15671188
-0.14755255
-0.13845853
-0.12946464
-0.12063301
-0.11202149
-0.10367388
-0.095625591
-0.087906459
-0.080540227
-0.07354443
-0.066931019
-0.060706958
-0.05487469
-0.049432601
-0.044375503
-0.039695109
-0.035380491
-0.031418516
-0.027794267
-0.024491439
-0.021492705
-0.018780056
-0.016335114
-0.014139407
-0.012174618
-0.010422803
-0.0088665817
-0.0074892982
-0.0062751747
-0.0052094128
-0.0042783975
-0.0034695451
-0.0027722926
-0.0021756166
-0.0016762617
-0.0012551954
-0.00094799186
-0.00064364875
-0.00066052607
-0.00013159133
-0.0014961717
0.0019237597
-0.20458819
-0.20713061
-0.20045147
-0.19057078
-0.18201565
-0.17389618
-0.16532821
-0.15646809
-0.14757539
-0.13871734
-0.12992209
-0.12124822
-0.11275797
-0.10450023
-0.096514386
-0.088833919
-0.08148622
-0.074492227
-0.067866952
-0.06162009
-0.055756505
-0.050276698
-0.045177308
-0.040451603
-0.036089964
-0.032080341
-0.0284087
-0.025059435
-0.022015762
-0.019260079
-0.016774293
-0.014540116
-0.012539334
-0.010754032
-0.0091668031
-0.0077609187
-0.0065204917
-0.0054305853
-0.0044774208
-0.0036482363
-0.0029322398
-0.0023182442
-0.0018024598
-0.0013662613
-0.0010422266
-0.00072591149
-0.00071161104
-0.00019545867
-0.0014139166
0.0017277646
-0.19319697
-0.19683534
-0.19205636
-0.18256825
-0.17447993
-0.16722575
-0.159561
-0.15151019
-0.14335646
-0.13517875
-0.1269976
-0.11886839
-0.11085643
-0.10301514
-0.095388472
-0.088014735
-0.08092634
-0.074149186
-0.067703035
-0.06160207
-0.055855343
-0.050467223
-0.045437885
-0.040763802
-0.036438238
-0.032451716
-0.02879248
-0.025446926
-0.022400013
-0.019635645
-0.017137015
-0.014886928
-0.012868079
-0.011063308
-0.0094558174
-0.0080293683
-0.0067684506
-0.0056584124
-0.0046856668
-0.0038375913
-0.0031033864
-0.0024719991
-0.0019390372
-0.0014870148
-0.0011440624
-0.00081616429
-0.00076423326
-0.00026997717
-0.0013142207
0.0015137725
-0.18342481
-0.18475947
-0.18128745
-0.17362656
-0.16651462
-0.16006011
-0.15325394
-0.14601883
-0.13860608
-0.13111258
-0.12356171
-0.11600355
-0.10850258
-0.10111456
-0.093886247
-0.086859102
-0.080069241
-0.073546588
-0.067315002
-0.061392723
-0.055792753
-0.050523232
-0.045587885
-0.040986486
-0.036715333
-0.032767712
-0.029134355
-0.025803883
-0.022763222
-0.019997998
-0.0174929
-0.015232015
-0.01319913
-0.011377997
-0.0097525759
-0.0083072402
-0.0070269678
-0.0058974848
-0.004905474
-0.0040385178
-0.0032858508
-0.0026366115
-0.0020857571
-0.0016171293
-0.0012538557
-0.00091375748
-0.00082019224
-0.00035132412
-0.0012011595
0.0012769841
-0.17270999
-0.17181288
-0.16892388
-0.16338031
-0.15758904
-0.15198073
-0.14605405
-0.13970901
-0.13311134
-0.12636192
-0.1194989
-0.11257078
-0.10563908
-0.098760605
-0.091984474
-0.08535483
-0.078910985
-0.072686559
-0.066709343
-0.061001594
-0.055580313
-0.050457552
-0.045640779
-0.04113331
-0.036934741
-0.033041399
-0.02944679
-0.026142036
-0.023116295
-0.020357172
-0.017851084
-0.015583618
-0.013539844
-0.011704602
-0.010062758
-0.0085994347
-0.0073002095
-0.0061512832
-0.0051396868
-0.0042532713
-0.0034813524
-0.0028132949
-0.0022434127
-0.001756902
-0.0013717622
-0.0010179076
-0.00088007556
-0.00043565802
-0.0010826315
0.0010280396
-0.16114827
-0.15874458
-0.15604558
-0.15224556
-0.14781505
-0.14310721
-0.13806179
-0.13263255
-0.12689732
-0.12093916
-0.11481064
-0.10856264
-0.10225263
-0.095936478
-0.089664619
-0.083483039
-0.077433428
-0.071552455
-0.065871421
-0.060416337
-0.055208088
-0.050262633
-0.045591286
-0.04120107
-0.037095102
-0.033273007
-0.029731337
-0.026463999
-0.023462668
-0.020717195
-0.018215988
-0.015946371
-0.013894919
-0.012047756
-0.010390833
-0.0089101732
-0.0075920883
-0.0064233657
-0.0053914787
-0.004484621
-0.00369225
-0.0030039889
-0.002413552
-0.0019074388
-0.0014986344
-0.0011287973
-0.00094469333
-0.00052143577
-0.0009643444
0.00077515273
-0.14850367
-0.14560745
-0.14318457
-0.14069354
-0.13748828
-0.13369983
-0.12951928
-0.12498053
-0.12010623
-0.11495259
-0.10957806
-0.10403539
-0.098378088
-0.092659537
-0.08693005
-0.081236262
-0.075621079
-0.070123174
-0.064776532
-0.059610297
-0.05464878
-0.049911542
-0.045413575
-0.041165556
-0.03717416
-0.033442414
-0.029970079
-0.026754038
-0.023788699
-0.021066388
-0.018577732
-0.016312016
-0.014257534
-0.012401894
-0.010732316
-0.0092358868
-0.0078997997
-0.0067115553
-0.0056591779
-0.0047312912
-0.0039175716
-0.0032079376
-0.0025955827
-0.0020682099
-0.0016340963
-0.0012458404
-0.0010143066
-0.00060729127
-0.00085190079
0.00052676492
-0.13511786
-0.13255359
-0.13061095
-0.12907705
-0.12688592
-0.12397881
-0.12062888
-0.11692975
-0.11288242
-0.1085183
-0.10389324
-0.099060339
-0.094068291
-0.088966237
-0.083802993
-0.078624739
-0.073474435
-0.068391574
-0.063411782
-0.05856648
-0.053882711
-0.049383107
-0.04508594
-0.041005281
-0.037151213
-0.033530113
-0.03014497
-0.026995727
-0.024079652
-0.021391705
-0.018924903
-0.016670685
-0.014619248
-0.012759872
-0.011081219
-0.0095716057
-0.0082192556
-0.007012516
-0.0059400804
-0.0049910994
-0.0041555584
-0.003423714
-0.0027883478
-0.0022382303
-0.0017774084
-0.0013682246
-0.0010890338
-0.00069195796
-0.0007510628
0.00029181395
-0.12167901
-0.11982225
-0.11846934
-0.11764369
-0.11625888
-0.11414955
-0.11157332
-0.10864799
-0.1053721
-0.10176043
-0.097860156
-0.093721496
-0.089389188
-0.084907039
-0.080320046
-0.075672722
-0.071007128
-0.066362471
-0.061774894
-0.057277095
-0.052898002
-0.048662603
-0.044591877
-0.040702844
-0.037008675
-0.033518886
-0.030239572
-0.0271737
-0.024321419
-0.021680391
-0.01924614
-0.017012387
-0.014971384
-0.013114239
-0.011431214
-0.0099120115
-0.0085460287
-0.0073225946
-0.0062311938
-0.0052616077
-0.0044042304
-0.0036497071
-0.0029905385
-0.0024164117
-0.0019277487
-0.0014951753
-0.0011689562
-0.00077459223
-0.00066706091
7.8750871e-05
-0.10869249
-0.10758493
-0.10682439
-0.10654596
-0.1057993
-0.10438273
-0.10250421
-0.10027845
-0.097706864
-0.094795091
-0.09158002
-0.088105782
-0.08441238
-0.080538807
-0.076525366
-0.072412919
-0.068241489
-0.064049096
-0.059871389
-0.055741324
-0.051688793
-0.047740323
-0.043918909
-0.040243937
-0.036731207
-0.033393017
-0.030238323
-0.027272948
-0.024499837
-0.021919338
-0.019529504
-0.017326408
-0.015304459
-0.013456707
-0.011775145
-0.010250992
-0.0088749538
-0.0076374693
-0.0065289345
-0.0055398682
-0.0046611781
-0.0038839577
-0.0032005729
-0.0026014829
-0.002084162
-0.0016259534
-0.0012540624
-0.00085488416
-0.00060390697
-0.00010550684
-0.096417363
-0.095955446
-0.095722419
-0.095880306
-0.095641873
-0.094809615
-0.093541718
-0.091936493
-0.089996748
-0.08772319
-0.08514315
-0.082293109
-0.079207413
-0.075919786
-0.072465743
-0.068881909
-0.065204837
-0.061470306
-0.057712601
-0.053964027
-0.050254525
-0.046611325
-0.043058679
-0.039617684
-0.036306207
-0.033138872
-0.030127133
-0.027279404
-0.024601238
-0.022095551
-0.019762878
-0.017601641
-0.01560844
-0.013778339
-0.012105151
-0.010581717
-0.0092001661
-0.0079521582
-0.006829115
-0.0058223963
-0.0049235304
-0.0041241256
-0.003416567
-0.0027919662
-0.0022455454
-0.0017598446
-0.0013442082
-0.00093302238
-0.00056389342
-0.00025644635
-0.084977773
-0.085019491
-0.085216305
-0.085718885
-0.085883262
-0.085532002
-0.084783817
-0.08371748
-0.082334535
-0.080632335
-0.078630047
-0.076356207
-0.073838935
-0.071106396
-0.068188839
-0.065118315
-0.061927442
-0.058648727
-0.055314158
-0.05195457
-0.048599128
-0.045274948
-0.042006769
-0.038816707
-0.035724077
-0.032745303
-0.029893897
-0.027180504
-0.024613017
-0.022196723
-0.019934505
-0.017827066
-0.015873172
-0.014069917
-0.012412983
-0.010896902
-0.0095153091
-0.0082611822
-0.0071270673
-0.0061052623
-0.0051880191
-0.0043675342
-0.0036363654
-0.002986195
-0.0024106602
-0.0018961436
-0.0014390866
-0.0010095655
-0.00054732164
-0.00037254458
-0.074424035
-0.07483417
-0.075356831
-0.076120201
-0.07659636
-0.076630869
-0.076312959
-0.075703546
-0.074801412
-0.073600995
-0.072114591
-0.070363251
-0.068368754
-0.066153587
-0.063742562
-0.061162725
-0.05844238
-0.05561033
-0.052695471
-0.049726359
-0.046730629
-0.043734525
-0.040762535
-0.037837087
-0.034978305
-0.032203835
-0.029528749
-0.026965507
-0.024523994
-0.0222116
-0.020033359
-0.017992113
-0.016088715
-0.014322251
-0.01269027
-0.011189029
-0.0098137215
-0.0085587149
-0.0074177601
-0.0063841788
-0.005451042
-0.0046112112
-0.0038575653
-0.0031823185
-0.0025781281
-0.0020341088
-0.001538188
-0.0010852406
-0.00055252164
-0.0004554189
-0.064761106
-0.065427069
-0.066181092
-0.067128941
-0.067836497
-0.068170746
-0.068198758
-0.067966644
-0.067470205
-0.066701289
-0.065666436
-0.064380033
-0.062857817
-0.061116724
-0.059176177
-0.057058091
-0.054786117
-0.052384999
-0.049880121
-0.047297109
-0.044661369
-0.041997585
-0.039329299
-0.03667857
-0.034065683
-0.031508912
-0.029024345
-0.026625789
-0.02432472
-0.022130303
-0.020049457
-0.018086966
-0.01624563
-0.014526434
-0.012928753
-0.011450555
-0.010088615
-0.0088387296
-0.0076959158
-0.0066545896
-0.0057087262
-0.0048519288
-0.0040775367
-0.0033782988
-0.002746414
-0.0021728947
-0.0016407602
-0.0011607138
-0.00057618125
-0.00050945644
-0.055968609
-0.056801643
-0.057707922
-0.058774043
-0.059643054
-0.060201025
-0.060498071
-0.060568501
-0.06040565
-0.059999296
-0.059351286
-0.05847032
-0.057366709
-0.056052216
-0.054541137
-0.052850372
-0.050998849
-0.049007009
-0.046896414
-0.044689368
-0.042408496
-0.040076314
-0.037714794
-0.035344991
-0.032986722
-0.030658285
-0.028376231
-0.026155204
-0.024007827
-0.021944654
-0.019974174
-0.018102858
-0.016335253
-0.014674105
-0.013120518
-0.01167412
-0.010333252
-0.0090951511
-0.0079561362
-0.00691177
-0.0059570031
-0.0050862546
-0.0042934505
-0.0035719127
-0.0029138108
-0.0023114854
-0.0017457829
-0.001236389
-0.00061393125
-0.00054095794
-0.048010918
-0.048942722
-0.049938182
-0.051068112
-0.052039749
-0.052756103
-0.053254292
-0.05355941
-0.053663099
-0.053553752
-0.053229581
-0.052694641
-0.051954619
-0.051016706
-0.049890534
-0.048588309
-0.047124395
-0.045514919
-0.043777467
-0.041930764
-0.039994305
-0.037987965
-0.035931614
-0.033844742
-0.031746116
-0.029653481
-0.027583292
-0.025550507
-0.023568419
-0.021648547
-0.019800583
-0.018032377
-0.016349975
-0.014757692
-0.013258216
-0.011852743
-0.010541121
-0.0093220079
-0.0081930314
-0.007150933
-0.0061916932
-0.0053106138
-0.0045023191
-0.003760767
-0.0030784355
-0.0024486496
-0.0018519728
-0.0013122821
-0.00066106318
-0.00055696979
-0.040842445
-0.04182173
-0.04285798
-0.044009066
-0.045035739
-0.045856052
-0.046497269
-0.046977436
-0.047287279
-0.047414519
-0.047354755
-0.047108449
-0.046677549
-0.046065414
-0.045277635
-0.044322217
-0.04320931
-0.041950925
-0.04056072
-0.039053755
-0.037446194
-0.035754975
-0.033997464
-0.032191122
-0.030353164
-0.028500253
-0.02664822
-0.024811817
-0.023004519
-0.021238361
-0.019523834
-0.017869816
-0.016283556
-0.014770694
-0.013335315
-0.011980038
-0.010706123
-0.0095135909
-0.0084013555
-0.0073673434
-0.0064085996
-0.0055213629
-0.0047010506
-0.0039423312
-0.0032382454
-0.0025829303
-0.0019578267
-0.0013879904
-0.00071321197
-0.00056408293
-0.034412088
-0.035401519
-0.03644277
-0.037583085
-0.038627768
-0.039508161
-0.040244165
-0.040848555
-0.041311807
-0.041621613
-0.041771887
-0.041760483
-0.04158651
-0.04125029
-0.040754086
-0.04010232
-0.039301423
-0.038359659
-0.037286984
-0.03609489
-0.034796181
-0.033404713
-0.031935107
-0.030402453
-0.028822015
-0.02720893
-0.025577925
-0.023943066
-0.022317532
-0.020713418
-0.01914159
-0.017611574
-0.016131487
-0.014708004
-0.013346376
-0.012050458
-0.01082278
-0.0096646332
-0.0085761583
-0.0075564451
-0.006603613
-0.005714875
-0.0048865148
-0.0041139868
-0.0033910752
-0.0027126709
-0.0020616923
-0.0014627472
-0.00076684258
-0.00056749625
-0.028666559
-0.029640017
-0.030660885
-0.031767679
-0.032802728
-0.033709013
-0.034500993
-0.035187582
-0.03575952
-0.03620499
-0.036517003
-0.036691682
-0.03672613
-0.036618415
-0.036368212
-0.035977039
-0.035448201
-0.034786696
-0.033999154
-0.033093753
-0.032080069
-0.030968889
-0.029771996
-0.028501923
-0.0271717
-0.025794592
-0.024383836
-0.022952386
-0.021512682
-0.020076446
-0.018654498
-0.017256613
-0.015891415
-0.0145663
-0.013287406
-0.012059599
-0.010886502
-0.0097705338
-0.0087129725
-0.0077140155
-0.0067728386
-0.0058876424
-0.005055626
-0.0042730929
-0.0035346915
-0.0028360715
-0.0021618524
-0.0015355275
-0.00081944436
-0.00057055572
-0.02355266
-0.024492851
-0.025476342
-0.026534444
-0.027540218
-0.028446752
-0.029264509
-0.029999611
-0.030643428
-0.031185002
-0.031617062
-0.031934727
-0.032133819
-0.032210869
-0.032163667
-0.031991512
-0.031695207
-0.031277044
-0.030740798
-0.0300917
-0.029336369
-0.028482684
-0.02753964
-0.026517163
-0.025425909
-0.024277048
-0.023082032
-0.021852363
-0.020599372
-0.019334009
-0.018066649
-0.016806932
-0.015563621
-0.014344494
-0.013156276
-0.012004584
-0.010893914
-0.0098276441
-0.0088080567
-0.0078363685
-0.0069127614
-0.00603641
-0.0052054487
-0.0044170728
-0.0036668652
-0.0029512662
-0.0022566026
-0.0016051658
-0.00086944052
-0.00057481267
-0.019019091
-0.019915526
-0.020851238
-0.021851541
-0.022815005
-0.023703424
-0.02452432
-0.025281819
-0.025968139
-0.026573413
-0.027090537
-0.027514194
-0.027839519
-0.028062115
-0.028178521
-0.028186444
-0.028084806
-0.027873765
-0.027554758
-0.027130522
-0.026605081
-0.025983682
-0.02527271
-0.024479565
-0.02361252
-0.022680548
-0.021693141
-0.02066011
-0.019591384
-0.01849681
-0.017385973
-0.016268015
-0.015151485
-0.014044208
-0.012953179
-0.011884487
-0.010843258
-0.009833622
-0.0088587035
-0.007920616
-0.0070204651
-0.0061583541
-0.0053333418
-0.0045435308
-0.0037854681
-0.0030564163
-0.0023443198
-0.001670462
-0.00091591864
-0.00058046742
-0.015017566
-0.015864898
-0.016747502
-0.017685658
-0.018599101
-0.019457081
-0.020264943
-0.021025378
-0.021731555
-0.022374809
-0.022948505
-0.023447299
-0.023866092
-0.02420005
-0.024444984
-0.024597565
-0.024655392
-0.024617038
-0.024482125
-0.024251377
-0.023926643
-0.023510893
-0.023008176
-0.02242356
-0.021763037
-0.021033406
-0.02024214
-0.019397221
-0.018506983
-0.017579929
-0.016624566
-0.015649232
-0.014661944
-0.013670252
-0.012681118
-0.011700815
-0.010734837
-0.0097878436
-0.008863609
-0.0079649921
-0.0070939088
-0.0062513145
-0.0054371493
-0.0046504085
-0.0038885983
-0.0031498228
-0.0024235267
-0.0017302667
-0.00095833077
-0.000586961
-0.011504112
-0.012300733
-0.013128663
-0.014003893
-0.014863735
-0.015683788
-0.01646776
-0.017217302
-0.017926546
-0.018588043
-0.019195801
-0.019744725
-0.020229805
-0.020646131
-0.020989198
-0.021255095
-0.021440576
-0.021543122
-0.021561025
-0.021493466
-0.021340561
-0.021103392
-0.020784014
-0.02038543
-0.019911551
-0.019367127
-0.018757653
-0.018089264
-0.017368598
-0.016602664
-0.015798688
-0.014963965
-0.014105713
-0.01323093
-0.012346262
-0.011457887
-0.010571414
-0.0096917922
-0.0088232414
-0.0079691915
-0.0071322296
-0.0063140581
-0.0055154253
-0.0047361741
-0.0039747365
-0.0032300556
-0.0024929648
-0.0017835572
-0.00099628099
-0.0005934929
-0.0084393444
-0.0091864443
-0.0099609804
-0.01077527
-0.011581203
-0.012359758
-0.013113391
-0.013842978
-0.014543562
-0.015208861
-0.015833597
-0.016413087
-0.016942617
-0.017417449
-0.017833064
-0.018185316
-0.018470496
-0.018685406
-0.018827437
-0.018894654
-0.018885862
-0.018800656
-0.018639457
-0.018403525
-0.018094952
-0.017716642
-0.017272252
-0.016766134
-0.016203239
-0.01558902
-0.014929311
-0.014230207
-0.013497928
-0.012738695
-0.011958601
-0.011163485
-0.010358826
-0.009549636
-0.0087403712
-0.0079348466
-0.0071361631
-0.0063466426
-0.005567742
-0.0048000792
-0.0040429528
-0.0032961192
-0.0025516978
-0.0018295222
-0.0010294457
-0.00059934888
-0.0057892198
-0.0064897065
-0.0072139554
-0.0079710829
-0.0087250549
-0.0094613807
-0.010181542
-0.010885821
-0.011570083
-0.01222911
-0.012858347
-0.013453594
-0.014010546
-0.014524791
-0.014991995
-0.015408021
-0.015768988
-0.016071339
-0.016311913
-0.016488029
-0.016597555
-0.016638974
-0.016611432
-0.016514776
-0.016349582
-0.016117153
-0.015819517
-0.015459385
-0.015040111
-0.014565621
-0.014040333
-0.01346906
-0.012856911
-0.012209172
-0.011531197
-0.010828289
-0.010105591
-0.0093679705
-0.0086199193
-0.0078654553
-0.0071080292
-0.0063504412
-0.0055947388
-0.00484222
-0.0040929695
-0.0033475089
-0.0025991445
-0.0018675892
-0.0010575505
-0.00060401586
-0.0035277
-0.0041861753
-0.0048649473
-0.005570433
-0.0062765218
-0.0069724856
-0.0076590329
-0.0083359779
-0.0089998976
-0.0096465125
-0.010271939
-0.010872477
-0.011444268
-0.0119833
-0.012485538
-0.012947011
-0.013363866
-0.013732422
-0.014049236
-0.014311176
-0.014515492
-0.014659879
-0.01474254
-0.014762235
-0.014718323
-0.014610794
-0.014440283
-0.014208071
-0.013916068
-0.013566782
-0.013163271
-0.012709079
-0.012208161
-0.011664795
-0.011083486
-0.010468862
-0.0098255724
-0.0091581729
-0.0084710223
-0.0077681742
-0.0070532716
-0.0063294491
-0.0055992164
-0.0048644411
-0.0041258951
-0.0033847946
-0.0026355277
-0.0018977672
-0.0010806339
-0.00060731874
-0.0016281896
-0.0022494823
-0.0028880258
-0.0035478391
-0.0042109047
-0.0048696119
-0.0055240549
-0.0061736656
-0.0068156148
-0.0074464199
-0.0080627941
-0.0086615005
-0.0092391222
-0.0097920595
-0.010316621
-0.010809086
-0.01126575
-0.011682963
-0.012057186
-0.01238506
-0.012663459
-0.012889562
-0.013060907
-0.013175455
-0.013231636
-0.013228401
-0.013165253
-0.013042272
-0.012860126
-0.012620066
-0.012323911
-0.011974016
-0.011573217
-0.011124778
-0.010632314
-0.010099705
-0.0095310057
-0.0089303426
-0.0083018091
-0.0076493558
-0.0069766793
-0.0062871135
-0.0055835024
-0.0048681655
-0.0041424524
-0.0034081859
-0.0026607206
-0.0019197231
-0.0010983365
-0.0006089252
-9.5032945e-05
-0.00068588813
-0.0012911828
-0.0019131851
-0.002540257
-0.0031672183
-0.0037936695
-0.0044187428
-0.0050400858
-0.0056548615
-0.0062602792
-0.0068535036
-0.0074315088
-0.007991076
-0.0085288515
-0.00904139
-0.0095251858
-0.009976707
-0.010392441
-0.010768945
-0.011102904
-0.011391182
-0.011630885
-0.011819421
-0.011954553
-0.012034453
-0.012057755
-0.012023588
-0.011931613
-0.011782039
-0.011575629
-0.011313697
-0.010998082
-0.010631116
-0.010215568
-0.0097545846
-0.0092516063
-0.0087102834
-0.0081343748
-0.0075276415
-0.0068937333
-0.0062360751
-0.005557732
-0.0048613615
-0.004148775
-0.0034222981
-0.0026781197
-0.0019358929
-0.0011123572
-0.00060975001
0.0011169158
0.00055118926
-2.6826473e-05
-0.00061780148
-0.0012150388
-0.0018152855
-0.0024177671
-0.003021371
-0.0036241066
-0.0042236398
-0.0048175741
-0.0054034003
-0.0059784167
-0.006539728
-0.0070842783
-0.0076088793
-0.0081102323
-0.0085849558