/*--------------------------------*- C++ -*----------------------------------*\
  =========                 |
  \\      /  F ield         | OpenFOAM: The Open Source CFD Toolbox
   \\    /   O peration     | Website:  https://openfoam.org
    \\  /    A nd           | Version:  6
     \\/     M anipulation  |
\*---------------------------------------------------------------------------*/
FoamFile
{
    version     2.0;
    format      ascii;
    class       volVectorField;
    location    "214";
    object      U_0;
}
// * * * * * * * * * * * * * * * * * * * * * * * * * * * * * * * * * * * * * //

dimensions      [0 1 -1 0 0 0 0];

internalField   nonuniform List<vector> 
9200
(
(0.0010393462 0.0014199822 -5.9201842e-20)
(0.013676067 -0.0020583667 4.6042532e-20)
(0.038313167 -0.0058665681 -3.8501737e-20)
(0.072274438 -0.0097635053 -6.0257748e-20)
(0.11376474 -0.013490029 1.8826965e-20)
(0.16158089 -0.016605658 3.2743879e-20)
(0.21467148 -0.018817285 -1.2268008e-20)
(0.27206608 -0.019973891 9.268862e-21)
(0.33285623 -0.020011223 1.6803426e-20)
(0.39616348 -0.018929051 1.4848072e-21)
(0.46111556 -0.016779815 -2.1456336e-20)
(0.52683687 -0.01365773 2.0670005e-20)
(0.59245069 -0.0096879957 -4.0422151e-20)
(0.65709132 -0.0050157728 -2.1133903e-20)
(0.71992472 0.00020556658 5.9046528e-21)
(0.78017502 0.0058241016 -2.5131674e-20)
(0.8371706 0.01171282 2.5217113e-20)
(0.89046877 0.017918522 2.2243179e-20)
(0.93967071 0.024573423 -2.9930234e-22)
(0.98205187 0.028293394 -1.6691948e-21)
(0.0052521804 -0.001346273 -1.7059353e-20)
(0.026962501 -0.0089890262 3.9747709e-20)
(0.061670117 -0.014809764 2.3576296e-20)
(0.10629489 -0.019172268 -1.1569757e-19)
(0.15873566 -0.022213995 -1.2727088e-20)
(0.21753352 -0.023720683 7.3297077e-20)
(0.28137296 -0.023595093 -3.5476399e-20)
(0.34900601 -0.021868961 -8.3905566e-21)
(0.4192392 -0.018645519 3.428754e-20)
(0.49090944 -0.014080835 -4.3259579e-20)
(0.56287232 -0.0083759444 -3.0338481e-20)
(0.63400847 -0.0017665871 7.1921432e-20)
(0.7032433 0.0054884025 3.8294049e-20)
(0.76957582 0.013118641 -6.7976557e-20)
(0.83211246 0.020852092 1.462369e-20)
(0.89010037 0.028419714 -3.6733397e-20)
(0.94296917 0.035569683 -1.3777192e-20)
(0.99043231 0.042140895 7.0974747e-20)
(1.0323561 0.047715317 2.9641967e-20)
(1.0669348 0.049139697 -8.3478319e-20)
(0.010858427 -0.0040424157 3.6773457e-20)
(0.043953414 -0.015431077 2.5047369e-21)
(0.090515436 -0.022552282 2.2341712e-20)
(0.1471114 -0.026497357 9.8116822e-22)
(0.21134255 -0.027886296 -4.0773938e-20)
(0.28146767 -0.026795112 1.8576402e-20)
(0.3558704 -0.023382726 1.34203e-20)
(0.43299007 -0.017921534 -5.0327703e-20)
(0.51132477 -0.010735647 5.7261857e-20)
(0.58942614 -0.0021838772 1.4256687e-20)
(0.66590916 0.0073479087 -5.4300708e-20)
(0.73948036 0.017460266 -1.8237402e-20)
(0.80897598 0.027756565 9.0591637e-21)
(0.87340264 0.037859273 2.3444737e-20)
(0.93197362 0.047424044 -1.1362505e-20)
(0.98413368 0.056148973 2.7877727e-20)
(1.029574 0.063789172 -2.0188235e-20)
(1.0682645 0.07020439 -7.0123588e-20)
(1.1003322 0.075119373 -2.3796293e-20)
(1.1249112 0.076641231 4.8659865e-20)
(0.017957214 -0.0064221633 2.4508015e-20)
(0.064776996 -0.020694799 5.1039223e-20)
(0.12485228 -0.028060846 1.9881694e-20)
(0.19446966 -0.030464065 1.2990095e-20)
(0.27094932 -0.02909484 1.7275702e-20)
(0.35224879 -0.024388977 -4.7720171e-20)
(0.43643139 -0.016825971 -2.5646856e-20)
(0.52162008 -0.0069766687 0)
(0.60602896 0.0045670336 1.3920615e-20)
(0.68798707 0.017211733 -5.852338e-21)
(0.76597518 0.030373923 -9.7934944e-20)
(0.83867447 0.043499633 -1.5774818e-20)
(0.90501526 0.056086617 6.5103196e-20)
(0.9642157 0.067704134 4.8442853e-22)
(1.0158035 0.078007714 -1.5725567e-21)
(1.0596155 0.086746791 2.1957495e-20)
(1.0957773 0.093772226 -5.2647198e-21)
(1.12468 0.099065331 -6.1029743e-20)
(1.1468647 0.10259707 -4.5851273e-20)
(1.1622957 0.10341385 6.9520593e-20)
(0.02657942 -0.008205688 -3.9194204e-21)
(0.089344021 -0.024033506 -5.1256323e-21)
(0.16430754 -0.030264988 5.6599408e-20)
(0.2475812 -0.029810018 1.8539324e-20)
(0.33624161 -0.024513026 -3.1955066e-20)
(0.42795126 -0.015239858 1.2163839e-20)
(0.52047262 -0.0028513613 2.6402862e-21)
(0.61166358 0.011737097 3.3609168e-20)
(0.69954712 0.027640143 5.6599503e-21)
(0.78236838 0.04402877 -1.3204739e-20)
(0.85865406 0.060147725 6.0154035e-20)
(0.92726911 0.075340471 -5.8009357e-20)
(0.98745676 0.089072861 -1.3216613e-19)
(1.0388531 0.10094902 -5.5773035e-21)
(1.0814725 0.11071709 8.3150773e-20)
(1.1156655 0.11826405 0)
(1.1420548 0.12360583 1.011896e-20)
(1.1614669 0.12689056 -1.5459772e-20)
(1.1748179 0.1282987 -8.5994645e-21)
(1.1826673 0.12744916 2.0992234e-20)
(0.036666909 -0.0090895796 -5.4309129e-21)
(0.11731511 -0.024685357 4.3578745e-21)
(0.20811868 -0.028140177 -8.7629838e-21)
(0.30515702 -0.023414954 2.8472394e-20)
(0.40533539 -0.01307559 -2.9392663e-20)
(0.50607148 0.0015226167 -1.6927023e-20)
(0.6049049 0.019095142 3.7364232e-20)
(0.6995496 0.038365256 4.7595455e-21)
(0.78800393 0.058167647 -2.4436056e-20)
(0.86863406 0.077483006 6.9867557e-20)
(0.94023973 0.095458644 5.2393991e-22)
(1.0020956 0.11143156 -8.0444312e-20)
(1.0539569 0.12494291 0)
(1.0960273 0.1357375 3.9542113e-20)
(1.1288922 0.14374843 5.5235995e-21)
(1.1534278 0.14906893 -7.7566397e-20)
(1.1706991 0.15191914 -1.9586922e-20)
(1.1818623 0.15262368 -1.2467631e-20)
(1.1880592 0.15152606 -1.4709383e-20)
(1.190146 0.14858493 4.0420508e-20)
(0.048058869 -0.0087674051 -1.7277958e-20)
(0.1480831 -0.021931993 -2.2198272e-21)
(0.2551407 -0.020797834 3.0380504e-20)
(0.36546384 -0.010412792 3.7484308e-20)
(0.47590421 0.0059015894 -1.9944733e-20)
(0.58374267 0.026269308 -6.9163029e-20)
(0.68644186 0.048977211 -2.7995796e-20)
(0.78176204 0.07241779 7.8929208e-20)
(0.86790196 0.095212479 8.5778129e-21)
(0.94358917 0.11624961 -2.4873482e-20)
(1.0081258 0.13469827 1.3642213e-20)
(1.061387 0.15001555 -4.3194485e-21)
(1.1037693 0.16193659 0)
(1.1360975 0.17044428 2.7203482e-20)
(1.1595046 0.17572309 -7.9322409e-20)
(1.175302 0.17810369 -3.1475527e-20)
(1.184857 0.17800813 8.1054573e-20)
(1.1894921 0.17590945 -4.2969859e-21)
(1.1904029 0.17225559 3.5561063e-21)
(1.188508 0.16719298 2.7111554e-20)
(0.060485251 -0.006957364 -3.2414615e-20)
(0.18077773 -0.015170381 -8.1624319e-20)
(0.30388929 -0.0075835264 2.5797752e-21)
(0.42642556 0.0097033571 7.0161809e-20)
(0.54535149 0.032631554 6.2424375e-20)
(0.65798101 0.058820044 -7.157452e-20)
(0.76190883 0.086176508 -2.8275139e-22)
(0.85518292 0.11285231 8.5522545e-20)
(0.93645347 0.13737837 4.8828068e-20)
(1.0050415 0.1586937 -5.4218406e-20)
(1.0609356 0.17613563 -9.2334212e-20)
(1.1047243 0.18941354 -3.1589825e-21)
(1.1374759 0.19855944 4.2127865e-20)
(1.1605873 0.20385857 -6.6056275e-21)
(1.1756247 0.2057702 -1.2868786e-20)
(1.1841776 0.20484919 1.9690807e-20)
(1.1877427 0.20167897 4.3880616e-20)
(1.1876453 0.19682588 -4.3859429e-20)
(1.1849954 0.19077884 -1.02322e-19)
(1.180625 0.1837738 2.456687e-20)
(0.073537216 -0.0034329735 -3.497975e-20)
(0.21422687 -0.0039890255 -1.7388612e-19)
(0.35251657 0.011839376 8.2103241e-20)
(0.48562798 0.037018337 9.2767514e-20)
(0.6108538 0.066835552 5.7970566e-20)
(0.72576727 0.098481178 8.6107093e-21)
(0.82834803 0.12959696 -1.0624009e-19)
(0.91718998 0.15824269 0)
(0.99162745 0.18302814 -6.8748587e-20)
(1.0517521 0.20311206 -1.5202409e-20)
(1.0983384 0.2181486 5.4703464e-20)
(1.1327008 0.22821082 1.097338e-20)
(1.156511 0.2336926 -4.5613853e-20)
(1.1716068 0.23519947 -4.9081361e-20)
(1.1798204 0.23344335 2.4287679e-20)
(1.182845 0.22915323 4.482289e-20)
(1.1821488 0.22300986 -5.5600407e-20)
(1.178936 0.21560822 -1.0751122e-19)
(1.1741468 0.20742224 -3.1513631e-21)
(1.1684567 0.19871881 2.70464e-20)
(0.086650447 0.001961386 -3.5448994e-21)
(0.24696019 0.011816634 8.7913241e-20)
(0.3988474 0.03749231 -1.6479244e-20)
(0.54040466 0.071218382 -8.4309148e-20)
(0.66949903 0.10778893 4.516437e-20)
(0.78421953 0.14411543 4.9175452e-20)
(0.8831894 0.17775668 5.535678e-21)
(0.96577871 0.2068849 -9.9502487e-20)
(1.0321763 0.23038802 -2.5048779e-21)
(1.0833328 0.24781553 5.0503542e-20)
(1.120807 0.25926301 5.9854758e-21)
(1.1465558 0.2652362 -1.9717206e-20)
(1.1627107 0.26650533 -7.5704626e-20)
(1.1713765 0.26396622 -6.2554023e-21)
(1.1744762 0.25852429 4.3533353e-20)
(1.1736548 0.25101089 3.7022012e-20)
(1.1702383 0.24213395 1.9793441e-20)
(1.1652402 0.23245875 -5.2994843e-20)
(1.1594014 0.22240418 1.295745e-20)
(1.1532252 0.212238 8.26591e-20)
(-0.0012932615 0.0014346598 -1.1234447e-21)
(-0.0047459603 0.0031874149 2.0646968e-21)
(-0.010771359 0.0041359041 8.7950003e-22)
(-0.017754287 0.004539536 -2.4411022e-21)
(-0.024740317 0.0045654166 -1.4114824e-21)
(-0.031299592 0.0043260386 1.5460011e-21)
(-0.037161327 0.0039035381 -6.8700807e-21)
(-0.042147441 0.0033577217 -5.9573037e-21)
(-0.046157775 0.0027313812 1.1171997e-20)
(-0.049146189 0.0020548306 -9.7427486e-21)
(-0.051100653 0.0013493004 -1.9833017e-22)
(-0.052030443 0.0006294219 3.6673442e-21)
(-0.051957737 -9.4889502e-05 -6.3295578e-22)
(-0.050911881 -0.00081693041 2.2818744e-20)
(-0.048925778 -0.0015318447 3.0401091e-22)
(-0.046035341 -0.002235174 -4.0882871e-20)
(-0.042281798 -0.002922268 7.5385619e-21)
(-0.037703443 -0.0035910385 2.3864111e-20)
(-0.032308695 -0.0042399865 -4.3852375e-20)
(-0.026156966 -0.0048211131 -2.7739204e-20)
(-0.0016521999 0.0041808663 -5.3716028e-21)
(-0.0053974811 0.0092681381 1.0865439e-20)
(-0.011218509 0.012007444 -1.0191543e-20)
(-0.017658025 0.013153764 3.9229741e-21)
(-0.023856432 0.013195413 4.8121438e-21)
(-0.029433317 0.012462724 7.1324182e-22)
(-0.03415232 0.011197014 -2.2509489e-20)
(-0.037860377 0.0095738967 -2.037024e-21)
(-0.040474298 0.0077189871 2.016354e-20)
(-0.041958921 0.0057212304 -5.0473599e-21)
(-0.042308949 0.0036428645 -2.1762589e-20)
(-0.041537336 0.0015267128 4.8973168e-21)
(-0.039667713 -0.00059830534 2.2635421e-20)
(-0.036729082 -0.0027127608 1.0308391e-20)
(-0.032752035 -0.0048026889 2.1854285e-20)
(-0.027769172 -0.0068555081 -1.9770728e-20)
(-0.021824797 -0.0088582192 -2.1672943e-20)
(-0.014966274 -0.010804224 2.1184617e-20)
(-0.0071290221 -0.012679 2.6810364e-20)
(0.0018742892 -0.014317223 1.5854765e-20)
(-0.0023034292 0.0065602326 -4.3568689e-21)
(-0.0065392238 0.014480195 -5.6387545e-21)
(-0.011892131 0.018710543 3.0723939e-22)
(-0.017211099 0.02042818 1.0959878e-21)
(-0.021819141 0.020400323 6.6918403e-21)
(-0.025431041 0.019151665 1.0665169e-20)
(-0.027877231 0.017066287 -3.7227636e-21)
(-0.029053268 0.014423783 -1.8896164e-20)
(-0.028909036 0.011424352 6.5413171e-21)
(-0.02743105 0.0082099049 1.286257e-20)
(-0.024627714 0.004879776 5.8340851e-21)
(-0.020520109 0.0015022386 1.8159105e-20)
(-0.015135988 -0.0018768632 1.7295914e-21)
(-0.0085054013 -0.0052272475 -3.3864527e-20)
(-0.00065689646 -0.0085276097 1.2020173e-21)
(0.0083810121 -0.011759109 -2.213921e-20)
(0.018556861 -0.014904096 -2.4466302e-20)
(0.029802172 -0.017953751 4.5819709e-20)
(0.042304954 -0.020855115 2.5349346e-20)
(0.056738558 -0.023247764 1.223927e-22)
(-0.0031290276 0.00836897 -5.283307e-21)
(-0.0078963988 0.018336513 -8.481527e-21)
(-0.012438986 0.023587808 4.3593047e-21)
(-0.016026534 0.025609658 4.1463451e-21)
(-0.018235023 0.025382745 2.0105707e-21)
(-0.018912651 0.023589321 7.3209955e-21)
(-0.017984717 0.020730273 9.3124778e-21)
(-0.01541671 0.017170377 -1.3511355e-21)
(-0.011207049 0.013171314 -1.1481946e-20)
(-0.0053752357 0.0089189315 -2.9071877e-20)
(0.0020481079 0.0045434372 6.1892412e-23)
(0.011026503 0.00013431116 4.069782e-20)
(0.021522218 -0.0042489506 -1.8383171e-20)
(0.033497841 -0.0085675844 -1.2296087e-20)
(0.0469205 -0.012795545 5.5348932e-22)
(0.061760081 -0.016911854 3.2302643e-20)
(0.077952996 -0.020901668 -1.4829543e-20)
(0.095392244 -0.024763374 -5.3339182e-20)
(0.11439843 -0.028379716 4.5765008e-20)
(0.13634536 -0.031073092 3.3013171e-20)
(-0.0039704096 0.0094657322 -6.878899e-22)
(-0.0090916579 0.020487792 -1.253474e-20)
(-0.012364471 0.026159086 -3.4144535e-20)
(-0.01355254 0.028143338 -5.724162e-21)
(-0.01253324 0.027555006 -3.6222739e-21)
(-0.0093167249 0.025188064 6.3051035e-21)
(-0.0039456458 0.021627411 -4.6461959e-21)
(0.0035261265 0.017298959 -8.807027e-21)
(0.013036818 0.012508752 2.1899709e-20)
(0.024521238 0.0074744428 5.0567071e-21)
(0.037915534 0.0023489044 -2.5290293e-20)
(0.05315744 -0.0027627836 1.1078278e-20)
(0.07018686 -0.007790874 0)
(0.088946573 -0.012691302 1.2089575e-20)
(0.10938543 -0.017436918 -9.7016173e-21)
(0.1314574 -0.022009895 -1.4337119e-20)
(0.15507406 -0.026408645 -1.5738946e-21)
(0.18006759 -0.030659419 -2.2181552e-21)
(0.2068534 -0.034576532 4.6147064e-20)
(0.23766357 -0.037019866 -1.0470127e-20)
(-0.0046450979 0.0097808623 -7.5356678e-21)
(-0.0096772508 0.02074788 2.45164e-20)
(-0.01106438 0.026160977 -1.0499346e-20)
(-0.0090968328 0.027724445 -2.7469281e-20)
(-0.0039797213 0.026601694 -2.7548146e-20)
(0.0040961819 0.023648408 -1.4921569e-20)
(0.014954148 0.019496457 -6.9059603e-22)
(0.028436233 0.014604706 5.5499782e-21)
(0.044403144 0.009303447 1.9615878e-20)
(0.062730493 0.003828416 7.3530853e-21)
(0.083304311 -0.0016547544 -7.1862209e-21)
(0.10601897 -0.0070322378 -2.0102307e-21)
(0.13077356 -0.012229097 -3.8191709e-20)
(0.15746943 -0.017199751 -1.2693644e-20)
(0.18601199 -0.021919733 1.8750606e-20)
(0.21631176 -0.026379716 -2.1021673e-20)
(0.24823222 -0.030602221 -8.9730575e-21)
(0.28151866 -0.034670605 3.0440466e-20)
(0.31660703 -0.038364817 5.0472069e-20)
(0.35665014 -0.039964097 3.3559662e-21)
(-0.0049617684 0.0093139987 1.6783304e-20)
(-0.0091662693 0.01909771 1.4467938e-20)
(-0.007859365 0.023563366 5.1145486e-20)
(-0.0018585399 0.024328944 2.3387981e-20)
(0.0082957222 0.022523783 1.8251774e-22)
(0.022221939 0.019014385 -3.9388454e-20)
(0.03959744 0.014440936 -2.4313859e-20)
(0.060147902 0.00926636 1.0465817e-20)
(0.083639112 0.0038232288 1.4401586e-20)
(0.10986669 -0.0016512984 -1.3113711e-20)
(0.13864562 -0.0069910086 -4.4038714e-20)
(0.1698017 -0.012082846 2.9618498e-20)
(0.20316404 -0.016854157 2.0020551e-20)
(0.23855945 -0.021263993 -2.7551155e-20)
(0.27581229 -0.025296401 1.1650135e-20)
(0.3147481 -0.028957165 2.4197613e-20)
(0.35514545 -0.032303049 8.072394e-21)
(0.39663386 -0.035506673 -1.176421e-20)
(0.439577 -0.038392638 -1.4190298e-20)
(0.48798509 -0.038634397 5.8727584e-21)
(-0.0047307763 0.0081236733 1.1093845e-20)
(-0.0070586006 0.015671176 -2.3352719e-20)
(-0.0020293663 0.018562033 8.6200552e-21)
(0.0090325196 0.018216225 3.3587966e-20)
(0.02525636 0.01565115 5.2124338e-20)
(0.046066336 0.011695604 2.0276509e-20)
(0.070984521 0.0069609531 -5.8639357e-21)
(0.099601945 0.0018829522 -1.2286283e-20)
(0.13156894 -0.003227197 -6.2057469e-21)
(0.16657567 -0.008149656 3.4240834e-20)
(0.20433424 -0.012733318 -4.5104386e-21)
(0.24456484 -0.016879185 -1.66433e-20)
(0.28698469 -0.020528683 -1.9693572e-20)
(0.33129997 -0.023656408 -4.7443738e-20)
(0.37720457 -0.026265528 2.3238704e-20)
(0.42438769 -0.028387855 -1.4095984e-20)
(0.47249972 -0.030127613 2.5993399e-20)
(0.52103616 -0.031783181 2.1040823e-20)
(0.57021393 -0.033350668 -8.5570382e-20)
(0.62470915 -0.032058828 -1.0807311e-22)
(-0.0037710521 0.0063146396 2.1925055e-20)
(-0.0028657666 0.010735096 -2.6165529e-20)
(0.0071421042 0.011564137 -4.5013295e-20)
(0.024450232 0.0099249904 -2.7253781e-20)
(0.047870849 0.0066523069 -2.0439868e-21)
(0.076628701 0.0024906183 1.3050094e-20)
(0.11007673 -0.0020153938 -2.8337692e-21)
(0.14765206 -0.0064879022 1.8118536e-20)
(0.18886095 -0.010663501 8.8685612e-21)
(0.23325194 -0.014362418 -1.1380172e-20)
(0.28039148 -0.017468945 8.8779135e-21)
(0.32984602 -0.019916801 -2.3903267e-20)
(0.3811688 -0.021678692 8.0504778e-21)
(0.43389084 -0.022759868 1.6756392e-20)
(0.48751934 -0.023194293 -2.6395129e-21)
(0.54154715 -0.023046882 1.6618978e-21)
(0.59543545 -0.022469434 -3.1957614e-22)
(0.64851782 -0.021870092 1.9590421e-20)
(0.70082238 -0.021445049 4.0434003e-21)
(0.75745149 -0.018499066 -5.7334212e-22)
(-0.0019110145 0.0040273483 2.3692112e-20)
(0.0038694296 0.0046765208 5.7159957e-20)
(0.02031531 0.0031879654 -4.9244224e-20)
(0.045178283 0.00029442743 -9.9454144e-21)
(0.07696515 -0.0034241502 2.0256344e-20)
(0.11469622 -0.0073535838 2.1433717e-21)
(0.15753882 -0.011054954 -2.9815161e-20)
(0.20474831 -0.014244136 6.98481e-21)
(0.25564949 -0.016737924 7.109788e-21)
(0.30960472 -0.018426952 -2.6254078e-20)
(0.36598647 -0.019260092 1.2927328e-21)
(0.42415958 -0.019231861 -3.7174113e-20)
(0.48347101 -0.018372195 -3.6341016e-20)
(0.54324564 -0.016738268 6.568348e-20)
(0.60278811 -0.014407293 5.5627481e-21)
(0.66138884 -0.011475888 -1.5188793e-20)
(0.71830784 -0.0081020337 1.9363967e-20)
(0.77269901 -0.0045928532 -9.1888134e-22)
(0.82408834 -0.00096803432 2.0364578e-20)
(0.87621966 0.0043280842 -1.9554142e-20)
(-0.018836423 -0.0050997023 5.8352037e-20)
(-0.010224664 -0.0056349254 1.5783665e-20)
(-0.00022120593 -0.0060688781 -3.5139553e-20)
(0.010823212 -0.0063341074 1.679023e-20)
(0.022642448 -0.0065120445 0)
(0.035177863 -0.0066300872 0)
(0.048369635 -0.0066909704 -2.297494e-20)
(0.062138045 -0.0067025366 -1.6502865e-20)
(0.076412682 -0.0066741709 1.9122586e-20)
(0.091134038 -0.0066126621 1.8174027e-20)
(0.10624714 -0.006523202 1.0524251e-21)
(0.12170018 -0.0064103541 -1.0317633e-20)
(0.13744486 -0.0062780771 8.3268756e-21)
(0.15343596 -0.0061297182 1.823371e-20)
(0.16963072 -0.0059681408 -5.2274143e-21)
(0.18598849 -0.0057958302 -1.0174931e-20)
(0.20247052 -0.0056149575 -4.3195858e-21)
(0.21903977 -0.0054274319 -4.4257373e-21)
(0.23566083 -0.0052349453 7.3667169e-22)
(0.25229983 -0.0050390081 1.2286034e-21)
(0.26892442 -0.0048409753 2.5666298e-21)
(0.28550382 -0.0046420668 6.6539434e-21)
(0.30200886 -0.0044433816 2.489444e-22)
(0.31841198 -0.0042459092 -3.4514686e-21)
(0.33468734 -0.0040505372 1.5558765e-22)
(0.35081089 -0.0038580572 -5.7709756e-22)
(0.36676034 -0.0036691691 1.2434357e-21)
(0.38251531 -0.0034844854 1.0522432e-21)
(0.39805728 -0.0033045344 -1.2987924e-21)
(0.4133696 -0.0031297644 -1.2218736e-22)
(0.42843757 -0.0029605473 3.5750042e-23)
(0.44324832 -0.0027971831 -3.5187561e-22)
(0.45779086 -0.0026399049 -4.0565378e-22)
(0.47205601 -0.0024888839 5.5412913e-23)
(0.48603633 -0.0023442355 -1.380902e-22)
(0.49972615 -0.002206025 -2.2343141e-22)
(0.51312145 -0.0020742746 2.5571892e-22)
(0.52621987 -0.00194897 2.9501933e-22)
(0.53902061 -0.0018300694 -8.2710587e-24)
(0.5515248 -0.0017175075 -1.5517348e-22)
(0.56373439 -0.0016112231 3.0406627e-23)
(0.57565597 -0.001511116 -4.0144722e-23)
(0.58728973 -0.0014172573 9.2203404e-23)
(0.59866466 -0.0013293106 2.1977258e-23)
(0.60973515 -0.0012485593 -1.1394485e-22)
(0.62069319 -0.0011717943 -6.7612687e-24)
(0.63106118 -0.0011112456 -7.2405925e-26)
(0.64234971 -0.0010339492 -3.5611616e-24)
(0.65042767 -0.0010508069 2.9453713e-23)
(0.66700856 -0.00087556126 3.6050706e-22)
(0.010445867 -0.015017609 -1.2746815e-20)
(0.018179696 -0.016641011 -6.330233e-20)
(0.027779214 -0.017915413 -3.0541937e-20)
(0.038385143 -0.018672071 3.8476008e-20)
(0.049620985 -0.019183588 1.4662609e-20)
(0.061506626 -0.019529432 -1.8204926e-20)
(0.074012817 -0.019709865 4.672201e-21)
(0.087062665 -0.019746491 2.5447186e-20)
(0.10059314 -0.01966728 9.1993674e-23)
(0.11455401 -0.0194917 -7.6591235e-21)
(0.12889716 -0.019234359 -1.3021015e-20)
(0.143576 -0.018908311 -8.5245287e-21)
(0.15854663 -0.018524971 1.7772332e-20)
(0.17376753 -0.018093999 8.9295424e-21)
(0.18919897 -0.017623678 -1.6522435e-20)
(0.20480274 -0.01712123 -6.0390572e-21)
(0.22054211 -0.016592995 3.2145043e-21)
(0.23638172 -0.016044568 8.371631e-21)
(0.2522875 -0.01548093 6.9832258e-21)
(0.2682267 -0.014906539 -6.9727146e-21)
(0.2841679 -0.014325411 -3.1685455e-21)
(0.30008106 -0.013741172 1.3605336e-21)
(0.31593761 -0.013157096 3.8682788e-22)
(0.33171049 -0.012576138 1.211395e-21)
(0.34737424 -0.012000956 1.8368352e-22)
(0.36290507 -0.011433922 -3.2661618e-22)
(0.37828091 -0.010877139 -7.2434846e-22)
(0.39348147 -0.010332451 9.7156552e-22)
(0.40848828 -0.0098014527 8.2482921e-22)
(0.42328466 -0.0092854996 -1.5147344e-22)
(0.43785581 -0.0087857202 5.5306054e-22)
(0.45218872 -0.0083030291 -2.3880908e-22)
(0.46627218 -0.0078381408 -3.7069875e-22)
(0.48009675 -0.0073915856 -6.0999064e-22)
(0.49365471 -0.0069637266 4.4171718e-22)
(0.50694003 -0.0065547776 -1.5477087e-23)
(0.5199483 -0.0061648232 1.612472e-22)
(0.53267678 -0.0057938386 -4.4174739e-22)
(0.54512423 -0.005441717 3.7189486e-22)
(0.55729132 -0.0051082801 6.7175217e-23)
(0.56917952 -0.0047933629 -1.02854e-22)
(0.58079492 -0.0044966817 1.7613681e-22)
(0.59213727 -0.0042184655 2.3339633e-22)
(0.60323483 -0.0039577245 1.6926471e-22)
(0.61404214 -0.0037183042 1.6767191e-22)
(0.62474834 -0.0034906493 -2.609799e-23)
(0.63488222 -0.0033112088 8.4043949e-23)
(0.6459314 -0.0030818667 7.6291895e-23)
(0.65382982 -0.0031323556 -1.946652e-22)
(0.67009174 -0.0026124396 -3.8026431e-23)
(0.067614681 -0.024029144 9.4528293e-21)
(0.073589663 -0.026749047 3.2950979e-21)
(0.082265499 -0.028805566 -1.21622e-20)
(0.091947811 -0.029968501 -1.2257919e-21)
(0.1019832 -0.030767861 1.4970587e-20)
(0.11254632 -0.031330889 -1.4887121e-20)
(0.12367595 -0.031636067 -2.9842268e-20)
(0.1352968 -0.031713002 1.4493519e-20)
(0.14735694 -0.031607632 1.8181962e-20)
(0.15982341 -0.031350052 -1.1598514e-20)
(0.17266058 -0.030961816 1.019055e-21)
(0.1858308 -0.030462749 8.6860143e-21)
(0.19929782 -0.029870547 -1.5253538e-20)
(0.21302655 -0.029200234 2.909513e-21)
(0.22698241 -0.028464755 7.5194337e-21)
(0.24113139 -0.0276755 3.1598619e-23)
(0.25544013 -0.026842553 2.6556424e-22)
(0.26987604 -0.025974892 -7.415084e-21)
(0.2844073 -0.025080559 3.8616816e-21)
(0.29900297 -0.024166814 8.4749027e-21)
(0.31363312 -0.023240228 -3.8351751e-21)
(0.32826891 -0.022306769 -2.213036e-21)
(0.3428827 -0.021371851 1.0124437e-21)
(0.35744819 -0.020440382 -1.715532e-21)
(0.37194048 -0.019516789 1.3532251e-21)
(0.38633618 -0.018605042 7.1845903e-22)
(0.40061349 -0.01770867 1.5268384e-21)
(0.41475222 -0.016830779 -1.9526612e-21)
(0.42873391 -0.015974064 2.2235675e-21)
(0.44254176 -0.015140829 5.5188518e-22)
(0.45616073 -0.014333001 4.0322551e-22)
(0.46957749 -0.013552155 3.2134461e-22)
(0.4827804 -0.012799535 8.7324968e-22)
(0.49575951 -0.01207608 -1.3708599e-21)
(0.50850653 -0.011382451 3.7065546e-22)
(0.52101477 -0.010719062 1.0941279e-22)
(0.5332791 -0.010086111 -4.5172226e-23)
(0.54529602 -0.0094836151 8.6732735e-23)
(0.55706347 -0.0089114537 -3.7184943e-22)
(0.56858125 -0.0083693867 1.8293486e-22)
(0.57984998 -0.0078571951 -3.4987111e-23)
(0.5908748 -0.0073744606 3.9004176e-22)
(0.60165464 -0.0069216125 -1.8544426e-22)
(0.61221637 -0.0064970623 4.7323446e-23)
(0.62251487 -0.0061071987 4.3603584e-23)
(0.63273386 -0.0057363344 -7.3599453e-23)
(0.64241427 -0.0054444094 -1.2082497e-22)
(0.65299979 -0.0050705034 3.8809217e-22)
(0.66054983 -0.0051542491 1.7270563e-22)
(0.67619348 -0.0043070168 -8.3039804e-22)
(0.15021527 -0.031460426 1.5010115e-21)
(0.15354688 -0.035257391 -1.1566608e-20)
(0.16061622 -0.038010916 6.6441918e-21)
(0.16880589 -0.039479094 -1.3324738e-20)
(0.17698223 -0.040520685 -1.9758308e-21)
(0.18552345 -0.041302276 9.1599382e-21)
(0.19458418 -0.041757232 -9.7662124e-21)
(0.2040869 -0.041913706 1.5662788e-21)
(0.21398767 -0.041833326 1.2903797e-20)
(0.22427597 -0.04155433 3.4031988e-21)
(0.23493252 -0.04110204 -6.2096948e-21)
(0.2459302 -0.040500444 -2.8638086e-21)
(0.25724157 -0.039771744 -5.8409058e-21)
(0.2688391 -0.03893505 -6.4553121e-21)
(0.28069422 -0.03800697 3.2356922e-21)
(0.29277761 -0.037002297 8.4621079e-22)
(0.30505973 -0.03593432 1.3679575e-21)
(0.31751097 -0.034815017 -3.3850412e-21)
(0.33010194 -0.033655244 -4.2428848e-21)
(0.34280361 -0.032464891 2.3616502e-21)
(0.35558755 -0.031252992 3.2251347e-21)
(0.36842611 -0.030027811 -1.563619e-21)
(0.38129258 -0.028796897 1.5867263e-21)
(0.39416131 -0.027567128 -3.9123976e-22)
(0.40700789 -0.026344739 -3.9196396e-21)
(0.41980922 -0.025135348 -3.0332809e-21)
(0.43254361 -0.023943973 -1.9026276e-22)
(0.44519088 -0.022775045 4.2858926e-22)
(0.45773236 -0.021632437 -2.2106029e-21)
(0.47015098 -0.020519474 -8.5497142e-22)
(0.48243127 -0.019438962 2.283765e-22)
(0.49455935 -0.018393218 -1.249868e-21)
(0.50652294 -0.017384095 6.2630343e-24)
(0.51831134 -0.016413023 -4.2420865e-22)
(0.5299154 -0.015481045 -4.7193601e-22)
(0.54132753 -0.014588857 -5.1995669e-22)
(0.5525416 -0.013736854 -8.4133077e-22)
(0.56355304 -0.012925177 -5.449629e-23)
(0.57435868 -0.012153772 -3.9160431e-24)
(0.58495717 -0.011422416 -5.1972316e-22)
(0.59534792 -0.010730913 -9.1607035e-23)
(0.60553479 -0.010078786 -3.3239365e-22)
(0.61551561 -0.0094667273 -4.3759934e-22)
(0.62531536 -0.0088926396 3.7841741e-22)
(0.63488944 -0.0083654073 1.4820977e-23)
(0.64441389 -0.0078635847 1.8237598e-22)
(0.65344715 -0.0074693437 -1.3246717e-22)
(0.66336975 -0.0069629554 -2.6691115e-22)
(0.67042183 -0.0070791562 -4.4691736e-23)
(0.68517875 -0.0059326917 4.6229552e-22)
(0.25468563 -0.03655275 -2.0900308e-20)
(0.25447017 -0.041393501 4.758594e-20)
(0.25907329 -0.044745648 1.0348092e-20)
(0.26508409 -0.046442033 -1.5765318e-20)
(0.27070929 -0.047714305 -2.0227909e-21)
(0.2765199 -0.048747765 2.6232299e-21)
(0.28283544 -0.049413707 -1.660818e-21)
(0.28957685 -0.049728087 -4.6861406e-21)
(0.29669652 -0.049761418 -4.0159156e-21)
(0.30420541 -0.04955704 -1.2207636e-20)
(0.31210211 -0.049141675 1.7897751e-20)
(0.3203693 -0.04854079 6.5219883e-21)
(0.32898692 -0.047778953 -1.6780521e-20)
(0.33793395 -0.046878006 1.0317572e-20)
(0.34718699 -0.045857288 8.38499e-21)
(0.35672066 -0.044734301 -8.7923707e-22)
(0.36650836 -0.043525055 -3.1222228e-21)
(0.3765228 -0.042244236 -3.8197303e-21)
(0.38673632 -0.040905347 -1.3892573e-21)
(0.3971212 -0.03952084 -1.2304187e-21)
(0.40764999 -0.038102209 -3.0257595e-21)
(0.41829568 -0.036660057 0)
(0.42903203 -0.035204142 -1.3451907e-21)
(0.43983362 -0.03374341 3.93095e-21)
(0.45067613 -0.032286016 5.4052648e-21)
(0.46153638 -0.030839342 -9.4112539e-22)
(0.47239247 -0.029410016 -2.9274424e-21)
(0.48322387 -0.028003923 3.0258369e-21)
(0.49401147 -0.026626232 2.5447475e-22)
(0.5047376 -0.025281415 3.4352435e-21)
(0.51538612 -0.023973278 -5.3459729e-22)
(0.52594235 -0.022704995 1.7173459e-21)
(0.53639312 -0.021479151 -7.9964316e-22)
(0.54672676 -0.020297779 2.9094102e-22)
(0.55693307 -0.019162416 -4.3403897e-22)
(0.5670033 -0.018074152 5.6231595e-22)
(0.57693013 -0.017033686 4.5709827e-22)
(0.58670772 -0.016041389 3.8255548e-22)
(0.59633158 -0.015097375 -9.5936089e-22)
(0.60579898 -0.014201542 6.8355346e-22)
(0.61510798 -0.013353809 -3.6957313e-22)
(0.6242609 -0.012553737 -1.1033171e-21)
(0.63325434 -0.011802358 1.4078149e-21)
(0.64211099 -0.011097177 -6.2005707e-23)
(0.65078706 -0.0104495 -1.581596e-22)
(0.65944901 -0.0098326259 -7.8244424e-24)
(0.66767752 -0.0093492415 -1.2621562e-22)
(0.67677337 -0.0087262014 -4.6582406e-22)
(0.68320522 -0.0088736407 8.7882819e-22)
(0.69685068 -0.0074648982 -4.4315686e-23)
(0.37635126 -0.038368157 -1.7495096e-20)
(0.37170974 -0.044270219 1.2832043e-20)
(0.37286686 -0.048161601 2.975457e-21)
(0.37591042 -0.05009884 -7.6353755e-21)
(0.37830523 -0.05166996 1.2055985e-20)
(0.38072289 -0.05304236 7.7914106e-21)
(0.38367597 -0.054030026 -1.2647685e-20)
(0.38710053 -0.054633088 -6.0679748e-21)
(0.39092919 -0.054917989 1.2697338e-20)
(0.39518238 -0.054927118 -1.530497e-20)
(0.3998742 -0.054687499 -1.406319e-20)
(0.40499501 -0.054224636 1.4129631e-20)
(0.41052856 -0.053563643 6.8193826e-21)
(0.41645712 -0.052727932 -4.2037662e-21)
(0.42276008 -0.051738999 -1.8545603e-21)
(0.42941397 -0.050616732 -4.058171e-21)
(0.43639341 -0.049379684 5.3047593e-21)
(0.44367189 -0.048045209 3.6682084e-21)
(0.45122217 -0.04662953 -3.2408292e-21)
(0.45901671 -0.045147797 3.1379483e-21)
(0.467028 -0.043614141 2.7666797e-21)
(0.47522883 -0.042041708 -3.2111126e-21)
(0.4835926 -0.040442683 3.7056558e-22)
(0.49209347 -0.038828299 -3.257164e-21)
(0.50070655 -0.037208846 7.2454134e-21)
(0.50940805 -0.035593687 6.1080589e-21)
(0.51817535 -0.033991262 8.0973165e-22)
(0.52698714 -0.032409104 -1.7683229e-21)
(0.53582345 -0.030853864 3.7021766e-21)
(0.54466571 -0.029331338 7.1885184e-21)
(0.55349675 -0.027846498 2.3049306e-21)
(0.56230086 -0.026403538 3.3164861e-21)
(0.57106374 -0.02500592 1.9956206e-21)
(0.57977254 -0.02365643 7.4557928e-22)
(0.5884158 -0.022357235 -2.6374548e-22)
(0.5969835 -0.02110995 2.7203121e-21)
(0.60546696 -0.019915708 6.1992181e-22)
(0.61385896 -0.018775227 2.9487768e-22)
(0.6221536 -0.017688912 5.6232469e-23)
(0.63034669 -0.016656887 9.8966553e-22)
(0.6384348 -0.015679297 4.7020071e-23)
(0.6464187 -0.014755844 4.4247452e-22)
(0.65429366 -0.013887978 -1.2621795e-22)
(0.66207992 -0.013072934 -2.7734854e-22)
(0.66973478 -0.012324338 -1.5218642e-22)
(0.67741368 -0.011610823 -4.2207922e-22)
(0.68472349 -0.011053525 1.6139331e-22)
(0.69287171 -0.010332318 -1.2723623e-22)
(0.69859455 -0.010509419 -5.012633e-22)
(0.71095696 -0.0088817515 2.4586945e-22)
(0.50927426 -0.035974266 3.6471462e-21)
(0.49953034 -0.042960645 -1.8958301e-20)
(0.4962755 -0.047383442 -2.3083841e-21)
(0.49555586 -0.049736746 5.4869549e-21)
(0.49416946 -0.051818009 3.0528089e-21)
(0.49269566 -0.053705373 -4.9882414e-23)
(0.49181221 -0.05518761 6.1896701e-21)
(0.49151443 -0.056265358 7.6251006e-21)
(0.49171158 -0.056990491 9.8580413e-21)
(0.49241063 -0.05739553 -1.125004e-20)
(0.49363095 -0.057506256 -2.1579418e-20)
(0.49536768 -0.05734837 -3.9353464e-21)
(0.49760458 -0.056947082 1.593814e-20)
(0.50032292 -0.056326959 1.2808956e-20)
(0.50350155 -0.055511681 -5.9066943e-21)
(0.50711641 -0.054523793 1.3817049e-21)
(0.51114129 -0.053384729 -3.6600829e-21)
(0.51554864 -0.052114882 2.2443746e-21)
(0.52031017 -0.050733589 -2.9123016e-22)
(0.52539722 -0.049259105 -1.8654092e-21)
(0.53078113 -0.0477086 7.8265872e-21)
(0.53643352 -0.046098148 -2.9308787e-22)
(0.54232658 -0.044442726 4.1818123e-22)
(0.54843327 -0.042756199 -6.5646628e-22)
(0.55472748 -0.041051318 -4.3029372e-21)
(0.56118417 -0.039339721 4.2085149e-21)
(0.56777952 -0.037631941 1.9031213e-21)
(0.57449094 -0.035937416 -3.3081911e-21)
(0.58129721 -0.034264519 -4.1116423e-21)