/*--------------------------------*- C++ -*----------------------------------*\
  =========                 |
  \\      /  F ield         | OpenFOAM: The Open Source CFD Toolbox
   \\    /   O peration     | Website:  https://openfoam.org
    \\  /    A nd           | Version:  6
     \\/     M anipulation  |
\*---------------------------------------------------------------------------*/
FoamFile
{
    version     2.0;
    format      ascii;
    class       volSymmTensorField;
    location    "137";
    object      UPrime2Mean;
}
// * * * * * * * * * * * * * * * * * * * * * * * * * * * * * * * * * * * * * //

dimensions      [0 2 -2 0 0 0 0];

internalField   nonuniform List<symmTensor> 
9200
(
(0.00014435839 -0.0001120582 5.2573787e-22 8.9940324e-05 -2.8130629e-22 8.48811e-39)
(0.00088844061 -0.00071159801 1.3414603e-21 0.00057212905 -1.0011364e-21 9.232284e-39)
(0.0017924101 -0.0013915952 1.6802914e-22 0.0010865621 -1.2670465e-22 5.0626328e-39)
(0.0028196619 -0.0020457178 -2.0150848e-21 0.0015005631 1.4179891e-21 1.0088984e-38)
(0.0038276289 -0.0026246215 9.2000787e-23 0.00183035 -7.7558806e-23 1.4797574e-39)
(0.0047459143 -0.0031023747 8.4306634e-22 0.0020757937 -5.6103348e-22 2.3092807e-40)
(0.0055264257 -0.0034701911 -1.8030019e-22 0.0022456843 1.2548514e-22 6.7049769e-40)
(0.0061309723 -0.003729124 1.6396544e-22 0.0023545771 -1.1096862e-22 4.5160593e-40)
(0.0065337971 -0.0038849506 8.1796834e-22 0.0024164199 -4.9777434e-22 1.2879798e-39)
(0.0067224421 -0.0039459014 6.3432665e-23 0.002443049 -3.8858641e-23 3.6692764e-42)
(0.0066976828 -0.003921592 -8.7800033e-22 0.002444217 5.4208201e-22 6.9051615e-40)
(0.0064732307 -0.0038223597 7.3364266e-22 0.0024277167 -4.7044596e-22 9.3670777e-41)
(0.006074654 -0.0036588425 -1.3063016e-21 0.0023995686 8.8625544e-22 1.4769702e-39)
(0.0055372287 -0.0034417218 -6.6152533e-22 0.0023642757 4.5800349e-22 9.3501091e-41)
(0.004902806 -0.0031815568 1.7150823e-22 0.0023250996 -1.2815302e-22 1.1994904e-41)
(0.0042159857 -0.0028886386 -6.4469816e-22 0.0022843263 5.0891787e-22 1.251354e-40)
(0.0035199204 -0.0025728581 5.6512677e-22 0.0022436312 -4.8409346e-22 1.5204523e-40)
(0.0028522139 -0.0022437327 4.1811247e-22 0.0022052473 -3.7532667e-22 6.265052e-40)
(0.0022442099 -0.0019099887 -1.5140387e-23 0.0021721574 3.207191e-23 1.1580579e-40)
(0.0017298017 -0.0015779491 -8.8146196e-24 0.0021231437 2.8680948e-23 1.4354224e-40)
(0.00019038512 -0.00012726633 5.5107086e-23 8.7373147e-05 -2.1222719e-23 1.4913617e-40)
(0.0011322479 -0.00078521465 1.4212659e-21 0.00054621031 -9.2458351e-22 9.8500387e-39)
(0.0022457801 -0.0015126957 -4.6444565e-22 0.0010245608 3.1127953e-22 5.3515672e-39)
(0.0034347622 -0.0021829457 -3.6147383e-21 0.0014025796 2.2616943e-21 2.3342154e-38)
(0.0045343744 -0.0027503103 -1.2298345e-22 0.0016973183 7.8447967e-23 2.9456684e-40)
(0.0054636817 -0.0031922172 2.789281e-21 0.0019116018 -1.6491417e-21 7.7203936e-39)
(0.0061737402 -0.0035053729 -1.143164e-21 0.0020567577 6.6999441e-22 2.6267185e-40)
(0.0066342854 -0.0036970171 -3.4544448e-22 0.0021485067 2.0079806e-22 9.4851415e-41)
(0.0068343087 -0.0037786887 1.3103511e-21 0.0022011315 -7.673797e-22 7.2297762e-40)
(0.0067812819 -0.0037636101 -1.5877189e-21 0.0022262563 9.4641744e-22 8.2847857e-40)
(0.0064992984 -0.0036654926 -1.1258074e-21 0.0022329627 6.8879729e-22 1.0264751e-39)
(0.0060264479 -0.0034978504 2.4294893e-21 0.002227993 -1.5486181e-21 5.2181762e-39)
(0.0054110366 -0.0032736566 1.1312803e-21 0.0022160127 -7.6881305e-22 3.6228993e-40)
(0.0047067673 -0.0030052261 -1.7809236e-21 0.0021999197 1.2947145e-21 1.7968338e-39)
(0.0039674364 -0.0027042085 3.1914175e-22 0.0021811425 -2.5066598e-22 1.5029104e-40)
(0.0032418848 -0.0023816006 -7.092108e-22 0.002159903 6.2546549e-22 3.9809823e-40)
(0.0025698434 -0.0020477397 -2.9410411e-22 0.0021355044 3.0612808e-22 1.2583586e-40)
(0.0019791295 -0.0017121004 8.9620768e-22 0.002106705 -1.0187742e-21 2.032183e-39)
(0.001485926 -0.0013822813 4.2432614e-22 0.0020697904 -5.7681991e-22 3.8382031e-40)
(0.0011004888 -0.0010658901 -1.803184e-22 0.0020056618 2.2771816e-22 2.9310108e-39)
(0.00024231171 -0.00013802926 -4.603937e-22 8.0398018e-05 1.9609827e-22 3.8390597e-39)
(0.0013918845 -0.00082774777 -7.6604407e-22 0.0004935448 4.2557333e-22 4.0025351e-39)
(0.0027108133 -0.0015702692 -8.7563384e-22 0.00091472252 5.1000046e-22 1.0004662e-38)
(0.0040354517 -0.00222666 2.8932139e-23 0.0012426574 -1.5924703e-23 1.0847199e-42)
(0.0051826917 -0.0027575166 4.3582958e-23 0.0014946661 -2.0119837e-23 7.1872035e-39)
(0.0060673328 -0.0031461382 9.7880134e-22 0.0016763714 -5.230665e-22 2.0093359e-39)
(0.0066484491 -0.0033960706 9.1383464e-23 0.0018006234 -4.6125934e-23 8.3203744e-40)
(0.0069137414 -0.0035208832 -1.6518427e-21 0.0018829337 8.9155859e-22 5.2536046e-40)
(0.006876626 -0.0035371841 1.9546418e-21 0.0019365421 -1.0826373e-21 9.9464117e-40)
(0.0065723297 -0.0034619096 6.4328416e-22 0.0019715718 -3.7435869e-22 1.1000499e-39)
(0.0060527816 -0.0033112519 -1.767279e-21 0.0019952805 1.0759051e-21 2.2653271e-39)
(0.0053805591 -0.0031002353 -5.5318456e-22 0.0020123827 3.6157079e-22 7.420442e-40)
(0.0046220338 -0.0028427088 2.0285703e-22 0.0020254243 -1.4180224e-22 2.013313e-39)
(0.0038404541 -0.0025515509 4.7776673e-22 0.0020351945 -3.746086e-22 2.8794518e-40)
(0.0030899708 -0.0022388901 -1.6629224e-22 0.0020411389 1.4619459e-22 2.2117215e-40)
(0.0024114818 -0.0019162136 3.8828422e-22 0.0020417651 -3.9414425e-22 1.7328412e-40)
(0.001830774 -0.0015943148 -2.6797276e-22 0.0020350348 3.206306e-22 6.6051663e-41)
(0.0013589315 -0.0012830121 -5.4106628e-22 0.0020186007 7.6512366e-22 1.630648e-39)
(0.00099480013 -0.0009904733 -1.5399622e-23 0.0019894264 1.6661445e-23 1.4768429e-39)
(0.00072962503 -0.0007242029 1.8682709e-22 0.0019411792 -4.1614903e-22 1.6540059e-40)
(0.00029838021 -0.00014275608 -3.6558045e-22 6.9641994e-05 1.3476843e-22 1.9068522e-39)
(0.0016539335 -0.00083206643 5.5544589e-22 0.00041960848 -2.7261427e-22 3.5435017e-40)
(0.0031593651 -0.0015543881 4.9335216e-22 0.00076934995 -2.4354814e-22 4.1158791e-40)
(0.0045806136 -0.0021686902 1.0785235e-21 0.0010396252 -5.1541238e-22 4.4426673e-39)
(0.0057232782 -0.0026439378 9.4587516e-22 0.0012471718 -4.5024096e-22 1.975854e-39)
(0.0065073691 -0.0029709181 -1.6558983e-21 0.0013995455 7.8999633e-22 1.5055662e-39)
(0.0069109728 -0.0031598958 -9.2491584e-22 0.0015096065 4.4970198e-22 4.2828567e-40)
(0.0069501158 -0.003229287 0 0.0015910927 0 0)
(0.0066704737 -0.0031985962 1.0079999e-21 0.0016548322 -5.5175342e-22 5.5355496e-39)
(0.0061387699 -0.0030860872 -4.3620533e-22 0.0017083125 2.5987231e-22 2.0971897e-39)
(0.0054334215 -0.0029082358 -2.5550887e-21 0.0017560753 1.5408129e-21 1.8321377e-39)
(0.0046350395 -0.0026798705 -3.2780057e-22 0.0018001593 2.0866018e-22 3.7443415e-40)
(0.0038176336 -0.0024146275 1.2518584e-21 0.0018405935 -9.4620692e-22 2.5114719e-39)
(0.0030416911 -0.0021253934 7.3161171e-23 0.0018759359 -4.7861836e-23 1.0435722e-39)
(0.0023500761 -0.0018245016 -1.9258549e-23 0.0019038313 1.9224048e-23 7.2724642e-43)
(0.0017670762 -0.0015236045 2.0634467e-22 0.0019215756 -2.4403964e-22 1.2799714e-40)
(0.0013002562 -0.0012332784 2.1764604e-24 0.0019266062 3.8551162e-24 1.510777e-40)
(0.00094423625 -0.0009625069 -3.6414811e-22 0.0019167295 6.3015238e-22 3.8636694e-40)
(0.00068512407 -0.00071815254 -2.0098078e-22 0.0018910152 4.3677447e-22 2.7011927e-40)
(0.00050506926 -0.00050509208 9.867384e-23 0.0018524522 -3.1813028e-22 1.7168149e-39)
(0.00035601589 -0.00014009526 2.7589963e-22 5.611749e-05 -8.7897924e-23 7.5018974e-40)
(0.0019018102 -0.00079360318 1.148801e-21 0.00033196434 -4.5823733e-22 6.7590188e-39)
(0.0035597805 -0.0014610251 8.9806807e-22 0.00060372112 -3.7062804e-22 4.2621328e-40)
(0.0050284451 -0.0020098922 1.0021815e-21 0.0008150349 -4.1010664e-22 2.3768796e-39)
(0.0061122498 -0.0024186916 -1.538599e-21 0.00098106171 6.3754395e-22 3.7441127e-39)
(0.0067481978 -0.002685684 5.6985541e-23 0.001109943 -1.8416933e-23 3.5637962e-40)
(0.0069445755 -0.002825799 8.7586329e-23 0.0012129178 -3.8376723e-23 2.9863766e-42)
(0.0067538021 -0.0028591586 1.2445729e-21 0.0013005957 -5.8382692e-22 1.3360441e-39)
(0.0062570724 -0.0028049069 1.6765079e-22 0.001380383 -8.3636657e-23 1.1993189e-41)
(0.0055502289 -0.0026798726 -4.4892732e-22 0.0014564144 2.5744779e-22 7.2375851e-40)
(0.0047305049 -0.0024989024 1.4557075e-21 0.0015300491 -9.1584072e-22 5.0409835e-39)
(0.0038852192 -0.0022756366 -1.0607552e-21 0.0016004156 7.0831297e-22 4.2838963e-40)
(0.0030836203 -0.0020232097 -1.989719e-21 0.0016650359 1.5800549e-21 3.0521909e-39)
(0.0023727597 -0.0017545333 -6.5618279e-23 0.0017205193 6.1564338e-23 6.475914e-42)
(0.0017774573 -0.0014820575 7.0259419e-22 0.0017632758 -8.0534371e-22 2.4937001e-39)
(0.0013035511 -0.001217143 0 0.0017901864 0 0)
(0.00094308597 -0.0009693005 8.8969611e-23 0.0017990803 -1.3084846e-22 6.4926255e-41)
(0.00067998837 -0.00074559715 -4.3193085e-23 0.0017888165 9.9147818e-23 9.6767852e-41)
(0.00049483117 -0.00055042752 -4.4874616e-23 0.0017605022 1.0078859e-22 2.5283318e-41)
(0.00036828955 -0.00038548519 1.9895927e-23 0.0017217773 -9.3002623e-23 1.7421916e-40)
(0.00041208989 -0.00012924713 6.0318095e-22 4.1233081e-05 -1.5537694e-22 3.0337287e-39)
(0.0021180584 -0.00071182928 5.8999638e-23 0.00023987463 -1.9377903e-23 5.6069446e-42)
(0.0038819705 -0.0012941352 -1.6897036e-22 0.00043499416 5.7165891e-23 2.4813721e-41)
(0.0053440501 -0.0017619246 1.7075893e-22 0.00059138605 -5.5312962e-23 4.9095726e-40)
(0.0063201221 -0.002102792 -1.0574736e-21 0.00072166922 3.7239556e-22 9.2013232e-40)
(0.0067763723 -0.0023203179 -5.0696003e-22 0.00083315681 1.8565453e-22 8.2826816e-41)
(0.0067600391 -0.0024301622 3.5548012e-22 0.00093421502 -1.0964138e-22 2.624657e-39)
(0.0063631485 -0.0024499472 -1.3505918e-23 0.0010315736 1.5169714e-23 2.0537113e-40)
(0.0056994678 -0.002395048 -8.4867737e-22 0.0011288107 4.2681283e-22 2.1691454e-39)
(0.0048855509 -0.0022787134 1.4686277e-21 0.0012265129 -7.7316869e-22 6.2884352e-40)
(0.0040256228 -0.0021132846 -3.7399526e-23 0.0013228245 5.6376239e-23 1.1280317e-39)
(0.0032014068 -0.0019112353 -1.1566606e-21 0.0014141125 8.5650683e-22 3.0975912e-39)
(0.002467542 -0.0016855525 0 0.0014957743 0 0)
(0.0018522656 -0.0014493447 2.77458e-22 0.0015631176 -3.2468549e-22 1.6668001e-39)
(0.0013620057 -0.0012149029 1.3314221e-23 0.0016121858 -3.0445542e-23 9.1340422e-41)
(0.00098796771 -0.00099262602 -3.3495937e-22 0.0016403996 5.4516298e-22 1.9326482e-39)
(0.00071287441 -0.00079019003 -7.5920062e-23 0.0016468386 1.4048417e-22 4.0014528e-41)
(0.00051655372 -0.00061222671 -2.2602201e-23 0.0016320358 6.5264381e-23 6.4985169e-41)
(0.00037958513 -0.00046061801 -2.9927032e-23 0.001598915 8.7981536e-23 2.5087269e-41)
(0.00028510143 -0.00033482011 5.3088014e-23 0.0015566317 -2.1509268e-22 2.405197e-40)
(0.00046327157 -0.00011016565 2.3277605e-22 2.6653011e-05 -4.4792214e-23 4.804556e-40)
(0.0022866109 -0.0005907391 -1.6667494e-21 0.00015313882 4.1951795e-22 1.044708e-38)
(0.0041015158 -0.001065516 -1.4976605e-22 0.00027987814 4.2356398e-23 9.7547101e-40)
(0.005504368 -0.0014456855 -4.466399e-22 0.00038899914 1.3149076e-22 4.9065889e-39)
(0.0063357854 -0.0017255772 -3.2908446e-22 0.00049001298 9.1910148e-23 6.7595689e-41)
(0.0066012492 -0.0019098475 -1.8640055e-21 0.00058846417 5.8196923e-22 8.916321e-40)
(0.0063908451 -0.0020098142 -9.1209664e-22 0.00068942035 3.2430134e-22 7.2273503e-40)
(0.005833213 -0.0020364394 1.7588532e-21 0.0007957928 -6.6968552e-22 5.7485541e-40)
(0.005065932 -0.0019988553 3.0015523e-22 0.00090754214 -1.5687583e-22 7.4317991e-40)
(0.0042141514 -0.001905919 -3.8523738e-22 0.0010219383 1.7675415e-22 2.5360868e-40)
(0.0033768229 -0.0017677852 1.8089818e-22 0.0011341966 -6.6696927e-23 9.5411943e-40)
(0.0026206986 -0.001596462 -3.341113e-23 0.0012383633 4.6240503e-23 2.4183971e-40)
(0.0019812116 -0.0014052323 0 0.0013283798 0 0)
(0.0014682132 -0.0012072967 1.8901304e-22 0.0013991238 -2.0036435e-22 5.7551197e-41)
(0.0010739865 -0.0010142387 -4.0002326e-22 0.0014472066 5.34621e-22 7.9061717e-40)
(0.00078119422 -0.00083485968 -1.2962548e-22 0.0014713756 2.0318688e-22 6.7689086e-41)
(0.00056923504 -0.00067467111 2.2224666e-22 0.0014724227 -4.5893376e-22 9.4668922e-40)
(0.00041842792 -0.00053607545 -5.0242816e-23 0.001452627 6.7214192e-23 2.045353e-40)
(0.0003120575 -0.00041916134 -3.3052881e-24 0.0014161784 -5.9395267e-24 2.2958539e-41)
(0.00023677858 -0.00032237112 5.0540499e-23 0.0013717819 -1.543804e-22 1.9905809e-41)
(0.00050640315 -8.3623051e-05 1.6954595e-22 1.4073565e-05 -2.2254759e-23 3.0085176e-40)
(0.0023948393 -0.00043849645 -1.5416749e-21 8.0714411e-05 2.7795825e-22 4.7897268e-39)
(0.0042026571 -0.00079322565 -1.2048962e-21 0.00015231433 2.3928991e-22 5.7340024e-39)
(0.0055006933 -0.0010880896 1.7123484e-21 0.00022337002 -3.5904085e-22 1.4017869e-39)
(0.0061666736 -0.0013198316 1.2882096e-21 0.00030048159 -2.9145472e-22 2.8953335e-40)
(0.0062509915 -0.0014885926 -9.39021e-22 0.00038743522 2.0855095e-22 3.0425082e-39)
(0.0058842812 -0.0015963894 3.0717e-22 0.00048659232 -1.1800945e-22 1.289217e-39)
(0.0052230361 -0.0016445786 1.7900762e-21 0.00059782848 -6.4083558e-22 1.4376788e-39)
(0.0044163163 -0.0016351986 7.8296177e-22 0.00071810067 -3.1076891e-22 1.8004285e-40)
(0.0035854488 -0.0015732903 -7.6718316e-22 0.00084181594 3.9622419e-22 4.6870167e-40)
(0.0028147734 -0.0014678806 -1.0380483e-21 0.00096172706 6.2572649e-22 5.5526406e-40)
(0.0021516762 -0.0013312621 -2.8222367e-23 0.0010701918 2.0648673e-23 5.7849591e-43)
(0.001613018 -0.0011771064 2.9691134e-22 0.0011605137 -2.6318657e-22 8.9846106e-41)
(0.0011945248 -0.0010182696 -9.6607423e-24 0.0012280115 3.4578976e-23 1.3936918e-40)
(0.00088014318 -0.00086506822 -9.8820546e-24 0.0012705684 5.6099943e-23 3.771995e-40)
(0.00064946253 -0.00072443946 6.4677372e-24 0.0012886029 -7.307584e-23 6.8138754e-40)
(0.00048253755 -0.0005999729 1.0262616e-22 0.0012845318 -2.0894417e-22 1.986225e-40)
(0.00036235683 -0.00049256432 -5.699496e-23 0.0012619319 1.7551899e-22 5.1991794e-40)
(0.00027556911 -0.00040146717 -1.475317e-22 0.001225494 4.2406961e-22 1.0039819e-39)
(0.00021207071 -0.00032503136 4.984548e-23 0.0011823906 -1.2367734e-22 2.2062427e-41)
(0.00053901671 -5.1147543e-05 -4.3887236e-22 4.9820221e-06 3.656193e-23 8.9852198e-40)
(0.0024352973 -0.00026640107 -3.3869013e-22 2.9489621e-05 3.6443535e-23 9.6791726e-40)
(0.0041798981 -0.00049910267 2.6383512e-21 6.1744809e-05 -3.3552908e-22 1.1843437e-38)
(0.0053391002 -0.00071822257 1.9556584e-21 0.00010362532 -2.8408045e-22 1.2890974e-39)
(0.0058366195 -0.0009171823 8.7195615e-22 0.0001601006 -1.3740728e-22 6.3409501e-40)
(0.0057670874 -0.0010859577 1.7577077e-22 0.00023435173 -3.6171306e-23 6.0518121e-42)
(0.0052933195 -0.0012136905 -1.6437761e-21 0.00032746403 3.6659319e-22 2.6490341e-39)
(0.0045871149 -0.0012910973 0 0.00043743583 0 0)
(0.0037962062 -0.0013138931 -1.0014134e-21 0.00055893693 4.3750024e-22 2.1951672e-39)
(0.0030283969 -0.0012847391 -1.7125198e-22 0.00068401125 1.1434486e-22 4.9834128e-40)
(0.0023487518 -0.0012126602 4.8826604e-22 0.00080350606 -2.8553705e-22 1.1914717e-40)
(0.0017857176 -0.0011105902 5.1601999e-23 0.00090881496 -6.7956149e-23 2.7425596e-40)
(0.0013416102 -0.00099228861 -2.3093093e-22 0.00099339558 2.2963172e-22 3.1799044e-40)
(0.0010035193 -0.00086975338 -1.7276786e-22 0.0010536431 2.3135661e-22 6.8159622e-40)
(0.00075213699 -0.00075175905 1.1248261e-22 0.0010889892 -1.1481891e-22 8.3378843e-41)
(0.00056758854 -0.00064356565 1.550798e-22 0.0011013649 -2.0169082e-22 7.6018343e-41)
(0.00043249738 -0.00054744928 -1.3725614e-22 0.0010942989 2.3070674e-22 7.0127317e-41)
(0.0003330775 -0.00046361877 -1.8218679e-22 0.0010719693 4.0189177e-22 8.3893867e-40)
(0.0002590614 -0.00039124345 1.4771103e-23 0.0010388599 -2.8467226e-24 9.9239527e-41)
(0.00020294416 -0.00032902016 2.4226257e-23 0.001000199 -8.5241816e-23 1.1682556e-40)
(0.00055924702 -1.4777768e-05 -2.897642e-22 4.482603e-07 7.3879193e-24 4.3966219e-40)
(0.0024057509 -8.7465223e-05 1.2331436e-21 3.4710477e-06 -4.4292794e-23 2.4367695e-39)
(0.0040378167 -0.00020620581 1.8855848e-21 1.2282093e-05 -1.1644605e-22 1.7689704e-38)
(0.0050389955 -0.00036412875 -2.1963585e-21 3.2295177e-05 1.9087171e-22 4.8644659e-39)
(0.0053816195 -0.00054506568 7.8991672e-22 6.9275704e-05 -8.7496238e-23 1.2136504e-40)
(0.0051972791 -0.00072454253 3.2028507e-22 0.0001278506 2.4618704e-24 4.4981808e-39)
(0.0046684304 -0.00087748304 8.4832374e-23 0.00020960465 -1.737613e-23 1.5948781e-42)
(0.0039688235 -0.00098493145 -1.203471e-21 0.00031177661 2.801613e-22 1.5101414e-39)
(0.003234424 -0.0010381954 -2.7257214e-23 0.00042735668 9.5287271e-24 2.3822891e-43)
(0.0025541398 -0.0010391962 4.4635848e-22 0.00054652093 -2.3561439e-22 5.7645824e-40)
(0.0019736029 -0.00099768855 3.4694913e-23 0.00065884185 -3.6434155e-23 8.2704784e-41)
(0.0015059067 -0.00092712606 -1.6144394e-22 0.00075547652 4.2579525e-23 1.0699438e-39)
(0.0011439803 -0.00084086678 -3.5586632e-22 0.00083064204 2.9281913e-22 1.1645718e-40)
(0.00087110152 -0.00074970359 -1.5095638e-24 0.00088207465 2.8431274e-23 1.393999e-40)
(0.00066813471 -0.00066093278 1.194699e-22 0.00091058852 -1.5963412e-22 1.3531867e-40)
(0.00051755849 -0.00057858955 7.9173437e-23 0.0009191113 -1.2837048e-22 1.3152976e-40)
(0.00040511059 -0.00050427482 1.7405341e-23 0.00091160558 -6.1004613e-23 2.1386762e-40)
(0.00032001939 -0.00043810953 -1.2729413e-22 0.00089219425 1.8029735e-22 1.7016879e-40)
(0.00025455384 -0.00037955773 -2.7261978e-23 0.00086468379 -1.8045058e-23 7.3383475e-40)
(0.00020317792 -0.00032771669 6.7782684e-23 0.00083240588 -2.1930917e-22 1.2089138e-39)
(3.7613394e-06 -4.6952826e-07 3.7605062e-23 5.7383823e-07 -7.5278088e-24 4.2970526e-40)
(1.7733473e-05 -7.4226352e-06 -5.3651493e-23 3.8129215e-06 1.4866166e-23 4.1371119e-40)
(3.972188e-05 -1.7154724e-05 1.1918324e-22 7.6003011e-06 -4.4629602e-23 2.3757753e-39)
(0.0001273456 -3.6194642e-05 3.325803e-22 1.0895475e-05 -7.0881321e-23 7.9905911e-39)
(0.00027942454 -5.9687529e-05 -2.3750232e-22 1.3850921e-05 4.0408233e-23 2.0778682e-39)
(0.00049925928 -8.5958207e-05 2.992678e-22 1.6468265e-05 -4.0561952e-23 2.295972e-39)
(0.00079392434 -0.00011409552 -4.105579e-22 1.8751176e-05 5.2015509e-23 2.5209614e-39)
(0.0011652014 -0.00014319074 -4.2331413e-22 2.0748e-05 4.4144374e-23 2.665944e-39)
(0.0016111858 -0.00017250658 5.3192028e-22 2.2510927e-05 -5.4994517e-23 2.8177331e-39)
(0.002128748 -0.00020149921 -4.1248529e-22 2.408085e-05 4.0163203e-23 1.434983e-39)
(0.0027140074 -0.00022975918 -2.0708781e-23 2.5488978e-05 3.4432337e-25 1.6698418e-41)
(0.003362396 -0.00025696955 1.1831883e-22 2.6759309e-05 -1.2565873e-23 5.2704151e-41)
(0.0040688692 -0.00028288103 -2.0444781e-23 2.7910304e-05 9.7502714e-25 8.380477e-42)
(0.0048281024 -0.00030729653 6.4178443e-22 2.8956816e-05 -5.7386247e-23 2.5119175e-39)
(0.0056346095 -0.00033006626 9.6123718e-25 2.9912513e-05 1.2178531e-24 5.4322415e-42)
(0.0064828624 -0.00035109658 -9.3889236e-22 3.0792327e-05 8.7775417e-23 5.1643524e-39)
(0.0073674512 -0.00037035808 1.7338799e-22 3.1612187e-05 -1.8287475e-23 1.0889489e-40)
(0.0082831086 -0.00038785011 4.1945799e-22 3.2384009e-05 -4.1704417e-23 1.3132303e-39)
(0.0092245925 -0.00040365315 -6.7736955e-22 3.3119597e-05 7.2437744e-23 3.721617e-39)
(0.010186002 -0.000418329 -3.7214055e-22 3.3814427e-05 4.2663457e-23 1.3974305e-39)
(4.2601727e-06 -1.9650578e-06 1.2378917e-23 5.0503369e-06 -4.5679982e-24 4.2477728e-41)
(2.2607235e-05 -2.5434738e-05 -3.3975464e-22 3.3599953e-05 2.5616885e-22 1.3835649e-38)
(5.0731202e-05 -5.7743187e-05 6.7432238e-23 6.6951425e-05 -5.578662e-23 1.2487597e-39)
(0.00014980447 -0.00011715214 3.5764229e-22 9.5979703e-05 -2.1951842e-22 6.6772849e-39)
(0.00031510371 -0.00018938818 4.9671581e-22 0.00012195957 -2.3845067e-22 7.5507119e-39)
(0.0005488283 -0.00026952693 6.0033582e-23 0.00014487005 -2.4037053e-23 7.0927006e-41)
(0.00085717156 -0.00035484792 -1.595258e-21 0.0001647499 5.515165e-22 3.7761979e-38)
(0.0012408646 -0.0004426655 -5.6068588e-23 0.00018202831 2.3182619e-23 1.0868855e-41)
(0.001697062 -0.00053081622 9.0077042e-22 0.00019716433 -2.7336208e-22 6.4419366e-39)
(0.0022217769 -0.00061770492 -2.1723562e-22 0.00021051823 5.9752966e-23 3.5822885e-40)
(0.002810284 -0.00070212764 -8.2343996e-22 0.00022236509 2.2476973e-22 3.9725565e-39)
(0.0034571663 -0.0007831495 1.7307869e-22 0.00023291509 -4.4061115e-23 1.8089319e-40)
(0.0041565182 -0.00086003115 7.3003876e-22 0.00024232759 -1.6237431e-22 4.2627361e-39)
(0.0049021231 -0.00093218178 3.0099394e-22 0.0002507276 -7.4579266e-23 4.8657958e-40)
(0.0056875426 -0.00099914141 6.0055237e-22 0.00025822647 -1.5968268e-22 1.4061846e-39)
(0.0065062353 -0.0010606047 -4.737688e-22 0.00026494274 1.1911166e-22 1.1902753e-39)
(0.0073518535 -0.0011164531 -4.5163803e-22 0.00027100458 1.1253443e-22 1.3021142e-39)
(0.0082181381 -0.0011666435 4.544519e-22 0.00027651567 -1.2950199e-22 7.5148325e-40)
(0.009097119 -0.0012113971 4.1288357e-22 0.00028159344 -1.150214e-22 1.3156697e-39)
(0.0099792776 -0.0012528371 1.5860635e-22 0.0002862408 -4.2551889e-23 5.5932405e-40)
(5.4764828e-06 -5.0324771e-06 9.5249842e-24 1.3471668e-05 -4.7575732e-24 2.2354075e-41)
(3.4170454e-05 -5.2561622e-05 2.5801421e-22 8.9691221e-05 -2.7617627e-22 5.8964296e-39)
(7.6347192e-05 -0.00011612005 -5.6444945e-23 0.00017856375 7.2733814e-23 3.0877452e-40)
(0.00019935278 -0.00022229169 -3.8844429e-22 0.00025586721 3.2694702e-22 7.310755e-39)
(0.00039193813 -0.00034816082 1.4276633e-22 0.00032480579 -1.1979996e-22 2.067077e-40)
(0.00065408754 -0.00048576906 1.8876363e-22 0.00038517876 -1.5336034e-22 1.0812641e-40)
(0.00099022447 -0.00063062623 -2.3555466e-22 0.0004370818 1.2469271e-22 6.5117994e-40)
(0.0013990987 -0.00077839036 -6.1409396e-22 0.00048165929 3.578276e-22 1.2982211e-39)
(0.0018760741 -0.00092559507 2.6872307e-22 0.0005201323 -1.3034398e-22 3.6346021e-40)
(0.0024155103 -0.001069677 5.7041662e-22 0.00055346653 -2.365337e-22 2.0650798e-39)
(0.0030110562 -0.0012086875 1.5758669e-22 0.00058240343 -1.0949729e-22 7.7269697e-41)
(0.0036556685 -0.001341099 6.9618549e-22 0.00060750783 -2.3019791e-22 3.8330976e-39)
(0.0043417957 -0.001465686 5.8865746e-23 0.00062920141 -2.1747055e-23 1.5884048e-41)
(0.005061526 -0.0015814443 -1.0298018e-21 0.00064780298 3.4647605e-22 6.1610351e-39)
(0.0058066371 -0.001687559 7.4963893e-23 0.00066358331 -4.9881916e-23 3.4134924e-41)
(0.0065687179 -0.0017834439 -4.7967603e-22 0.00067682311 1.3266766e-22 2.4015393e-39)
(0.0073397322 -0.0018688161 -6.7283364e-22 0.00068782704 2.6680668e-22 9.8464589e-40)
(0.0081117469 -0.001943518 1.0892139e-21 0.00069689692 -4.2538119e-22 3.2698624e-39)
(0.0088722948 -0.0020078603 5.7283008e-22 0.00070452435 -2.382776e-22 6.645049e-40)
(0.0096064371 -0.0020663451 1.1457634e-22 0.00071104139 -5.2539934e-23 1.4240278e-41)
(8.0682686e-06 -1.0410829e-05 -1.4267946e-23 2.4811528e-05 1.7973411e-23 3.2702327e-41)
(5.6010669e-05 -9.3319174e-05 -5.9762456e-22 0.00016545482 7.5585163e-22 1.956249e-38)
(0.00012385917 -0.00020110448 -4.3464991e-23 0.00032907764 5.5855226e-23 2.6740274e-40)
(0.0002863768 -0.00036332965 9.9999414e-23 0.000471146 -1.1070483e-22 1.7033532e-40)
(0.00052323168 -0.00054962247 -1.6230365e-23 0.00059719862 4.2338384e-24 4.4025264e-41)
(0.00083113578 -0.00074917502 5.0912394e-22 0.00070652239 -3.7297422e-22 3.2123813e-39)
(0.0012118 -0.00095572876 5.6248105e-22 0.00079924176 -3.6698913e-22 2.9180587e-39)
(0.0016610515 -0.0011634526 -1.7052814e-22 0.00087746922 8.2286741e-23 4.5999067e-40)
(0.0021715932 -0.0013677464 -6.2394849e-22 0.00094347105 3.2528131e-22 2.9238711e-39)
(0.0027352989 -0.0015651873 -1.2552057e-21 0.00099906577 6.7587099e-22 6.1960719e-39)
(0.0033433783 -0.0017531436 -2.7936572e-23 0.0010456694 -1.4655244e-23 1.4160152e-40)
(0.0039863742 -0.0019295263 1.5933951e-21 0.0010843699 -7.4063872e-22 1.0127063e-38)
(0.0046543193 -0.0020926248 -6.4552731e-22 0.0011159778 2.4523275e-22 2.9954375e-39)
(0.0053368878 -0.0022410097 -4.1574564e-22 0.0011410996 1.8173132e-22 5.9067019e-40)
(0.0060234167 -0.0023734789 -4.9366081e-23 0.0011602286 5.6302045e-23 1.2762908e-40)
(0.0067030521 -0.0024891058 9.8022794e-22 0.0011738446 -4.297389e-22 2.4214572e-39)
(0.0073656351 -0.002587385 -5.5347291e-22 0.0011824543 2.783139e-22 1.6124638e-40)
(0.0080014579 -0.0026680873 -1.2671422e-21 0.0011866911 5.3445769e-22 5.2142778e-39)
(0.00859315 -0.0027316713 8.4646735e-22 0.0011880656 -3.6999792e-22 2.6215276e-39)
(0.0091200116 -0.0027853984 7.3014673e-22 0.0011883419 -2.9373717e-22 2.4396607e-39)
(1.2903581e-05 -1.854339e-05 6.4037536e-23 3.7825263e-05 -6.2238495e-23 4.2135523e-40)
(9.2907702e-05 -0.0001503367 2.0832138e-23 0.00025249591 -5.4490721e-24 1.9009376e-40)
(0.00020288529 -0.0003177457 -8.2247462e-22 0.00050128516 1.1780879e-21 1.6041869e-38)
(0.00042425962 -0.0005466409 -4.7244342e-22 0.00071655476 5.0185728e-22 4.9642057e-39)
(0.00072540328 -0.00080047034 3.1558217e-22 0.00090619375 -2.5123285e-22 3.0010337e-39)
(0.0010985942 -0.0010655893 3.9141374e-22 0.001068581 -3.1533974e-22 1.4131617e-39)
(0.0015416921 -0.0013339108 -5.0943406e-22 0.0012038561 3.3242669e-22 3.3075337e-39)
(0.0020465353 -0.0015983146 -7.7640986e-22 0.0013152969 4.4494691e-22 7.2581055e-39)
(0.0026021795 -0.0018532874 1.1465458e-21 0.0014064474 -6.8408724e-22 7.4449215e-39)
(0.0031970777 -0.0020947134 3.2932824e-22 0.0014802114 -1.3276186e-22 1.7337529e-39)
(0.0038191147 -0.002319406 -1.0302734e-21 0.001538906 6.8280055e-22 5.704955e-40)
(0.0044556203 -0.0025248245 4.5265158e-22 0.0015843529 -2.0512217e-22 1.3345496e-39)
(0.0050935726 -0.0027088917 0 0.0016179462 0 0)
(0.0057197704 -0.0028698699 4.3910383e-22 0.0016407433 -2.1383527e-22 5.219426e-40)
(0.0063209042 -0.0030062964 -3.2890385e-22 0.0016535873 1.5626451e-22 2.7869621e-40)
(0.0068837841 -0.0031170324 -5.0277021e-22 0.0016572404 2.5144151e-22 3.3799734e-40)
(0.007396642 -0.0032014826 1.8446758e-22 0.0016524222 -1.5273278e-22 4.7638392e-40)
(0.007849198 -0.0032596109 -1.5019035e-22 0.0016401187 9.0535581e-23 1.7145895e-41)
(0.0082208792 -0.0032924038 7.1721117e-22 0.0016236139 -3.1091125e-22 2.8249684e-39)
(0.0084852766 -0.0033095725 -5.8381521e-22 0.0016082945 2.8760796e-22 1.6372597e-40)
(2.0986092e-05 -2.9567776e-05 6.1430881e-23 5.1275585e-05 -5.1650574e-23 3.382971e-40)
(0.00015024725 -0.00022408267 2.9554595e-22 0.00034198612 -3.9363993e-22 1.2612405e-39)
(0.00032402051 -0.00046653429 -3.9658698e-22 0.00067676513 5.264554e-22 3.011324e-39)
(0.00062705084 -0.00077187417 -6.4989594e-22 0.00096477548 7.3174349e-22 2.5186848e-39)
(0.0010143435 -0.0010985377 -1.8906473e-22 0.0012160184 2.7924663e-22 1.98908e-39)
(0.0014722591 -0.0014298787 -5.8683719e-22 0.0014277227 5.1585313e-22 1.2380185e-39)
(0.0019933666 -0.0017559199 -2.7395694e-22 0.0016001683 1.6858736e-22 1.4320883e-39)
(0.0025642945 -0.0020685319 4.7366444e-22 0.0017379996 -2.8467331e-22 2.6413888e-39)
(0.0031693782 -0.0023616221 1.1301576e-21 0.0018462619 -6.7311327e-22 9.0426001e-39)
(0.0037926965 -0.0026307028 3.4724604e-22 0.0019292008 -2.1375994e-22 3.7905907e-40)
(0.0044180975 -0.0028723699 -3.2983244e-22 0.0019903036 1.7494148e-22 6.0154222e-40)
(0.0050292615 -0.003083987 -6.2439296e-23 0.0020323987 -1.344521e-23 5.2410359e-40)
(0.00561003 -0.0032634947 -1.5643869e-21 0.0020577293 8.5648908e-22 4.9842324e-39)
(0.0061447296 -0.003409285 -4.8494369e-22 0.0020680557 2.5374678e-22 5.1557922e-40)
(0.0066183978 -0.0035201303 8.0980105e-22 0.0020647917 -4.6981636e-22 2.4324691e-40)
(0.0070171509 -0.0035952051 -8.0623126e-22 0.0020491389 4.3689366e-22 5.0877945e-40)
(0.0073298702 -0.0036343053 -2.8399737e-22 0.0020220468 1.4004555e-22 1.6303662e-40)
(0.0075489062 -0.0036380761 6.3508951e-22 0.0019846265 -2.6746998e-22 2.5365891e-39)
(0.0076551324 -0.0036086871 9.590328e-22 0.0019421311 -4.8123969e-22 1.9208737e-39)
(0.0076175669 -0.0035574504 1.1701813e-22 0.0019062266 -5.4815321e-23 3.74278e-41)
(3.3380962e-05 -4.3325675e-05 -1.7327888e-22 6.4036133e-05 1.4070499e-22 2.0016817e-39)
(0.00023337377 -0.00031281906 -1.9204338e-22 0.00042556073 1.9483936e-22 1.5954471e-39)
(0.00049722229 -0.00064311197 4.8273159e-22 0.00083797505 -6.1079724e-22 7.2566758e-40)
(0.00090677091 -0.0010313579 7.3770665e-22 0.0011897804 -7.6458462e-22 3.3440672e-39)
(0.0014015229 -0.0014320058 9.6380362e-24 0.0014927547 -8.6818658e-24 6.6418302e-43)
(0.0019600085 -0.0018252188 -2.0012794e-21 0.0017430783 1.6520264e-21 1.9535458e-38)
(0.0025678245 -0.0021992224 -7.8112079e-22 0.0019415307 6.6962981e-22 2.7734888e-40)
(0.0032051586 -0.00254535 6.0878495e-22 0.0020943966 -4.1065958e-22 2.1441118e-39)
(0.0038507795 -0.002857516 6.9655882e-22 0.0022084633 -4.6804443e-22 1.3107679e-39)
(0.0044839361 -0.0031314857 -6.8327806e-22 0.0022895785 3.8028426e-22 3.5997798e-39)
(0.0050844171 -0.0033642961 -2.0002831e-21 0.0023426767 1.2637029e-21 5.2399846e-39)
(0.0056328376 -0.0035539306 1.3139367e-21 0.0023718687 -7.9718324e-22 2.1540109e-39)
(0.006111202 -0.0036991254 7.819975e-22 0.0023805174 -4.0785936e-22 2.5835549e-39)
(0.0065034789 -0.0037992472 -1.0814762e-21 0.0023713446 5.9746655e-22 2.1304366e-39)
(0.0067960628 -0.0038542108 4.7419903e-22 0.0023465613 -2.7436648e-22 1.4251038e-40)
(0.0069782676 -0.0038644395 7.8614723e-22 0.002307971 -4.0541446e-22 1.5870555e-39)
(0.0070441199 -0.0038309483 2.9887925e-22 0.0022567636 -1.6901623e-22 5.3872113e-41)
(0.0069936668 -0.0037556457 -5.1137447e-22 0.0021937367 3.1760153e-22 6.7815056e-41)
(0.00681626 -0.0036423343 -1.1773742e-22 0.0021252642 3.7767631e-23 3.9336663e-40)
(0.0064802413 -0.0035024978 6.6942947e-22 0.0020709147 -3.8852679e-22 1.5851775e-40)
(5.1133441e-05 -5.9367927e-05 -5.2059658e-24 7.5108722e-05 -5.3944415e-24 3.7155483e-41)
(0.00034688037 -0.00041266662 -6.9681762e-22 0.00049580886 7.3727942e-22 5.2419892e-39)
(0.00073006781 -0.00083845261 -5.5655739e-22 0.00096968728 5.9726657e-22 7.9332538e-39)
(0.001270635 -0.0013104592 1.0419832e-21 0.001369381 -9.9925372e-22 4.6348827e-39)
(0.0018903275 -0.0017801387 8.6748255e-22 0.0017081137 -8.5199272e-22 1.9681727e-39)