/*--------------------------------*- C++ -*----------------------------------*\
  =========                 |
  \\      /  F ield         | OpenFOAM: The Open Source CFD Toolbox
   \\    /   O peration     | Website:  https://openfoam.org
    \\  /    A nd           | Version:  6
     \\/     M anipulation  |
\*---------------------------------------------------------------------------*/
FoamFile
{
    version     2.0;
    format      ascii;
    class       surfaceScalarField;
    location    "178";
    object      phi;
}
// * * * * * * * * * * * * * * * * * * * * * * * * * * * * * * * * * * * * * //

dimensions      [0 3 -1 0 0 0 0];

internalField   nonuniform List<scalar> 
18180
(
0.00031872927
-0.00016316014
-0.00015556913
0.001309211
-0.0013669163
0.00037643457
0.0030328876
-0.0033336208
0.0016099443
0.0055497736
-0.0059759607
0.0034590748
0.0089181969
-0.0092390821
0.0058706587
0.013192812
-0.013079533
0.0088049177
0.018421941
-0.017459846
0.012230717
0.024644604
-0.022345806
0.016123143
0.031887368
-0.027703324
0.020460559
0.040161279
-0.033495816
0.025221906
0.049459164
-0.03968245
0.030384564
0.059753718
-0.046217222
0.035922669
0.070996727
-0.053048864
0.041805854
0.083119931
-0.0601216
0.047998396
0.096038105
-0.067376855
0.054458682
0.10965489
-0.074756017
0.061139231
0.12387082
-0.08220411
0.067988177
0.13859855
-0.089674095
0.074946367
0.15383665
-0.097148842
0.081910745
-0.10462598
0.0886789
0.16978373
0.00039749708
-0.00056065721
0.0016095947
-0.002579014
0.003689318
-0.0054133441
0.0066874435
-0.0089740862
0.010650652
-0.01320229
0.015617869
-0.01804675
0.021616258
-0.023458234
0.028657256
-0.029386804
0.036732943
-0.03577901
0.045813142
-0.042576015
0.055843685
-0.049712994
0.0667462
-0.057119737
0.078419657
-0.064722321
0.090743773
-0.072445716
0.10358406
-0.08021714
0.1167979
-0.087969864
0.13024077
-0.095646979
0.14377297
-0.1032063
0.15725857
-0.11063444
-0.11786191
0.1704945
0.00048062343
-0.0010412806
0.0019186982
-0.0040170887
0.0043524787
-0.0078471246
0.0078165631
-0.012438171
0.012337664
-0.017723391
0.017929206
-0.023638292
0.024586248
-0.030115276
0.032281208
-0.037081764
0.040960838
-0.04445864
0.050544918
-0.052160096
0.060927065
-0.06009514
0.071977802
-0.068170474
0.083549793
-0.076294312
0.095484806
-0.084380729
0.10762168
-0.092354017
0.11980425
-0.10015243
0.131888
-0.10773073
0.14374348
-0.11506177
0.1552487
-0.12213966
-0.1289143
0.1663011
0.00056616969
-0.0016074503
0.0022279424
-0.0056788614
0.0050006111
-0.010619793
0.0088940103
-0.01633157
0.013905257
-0.022734638
0.020011881
-0.029744916
0.027166486
-0.037269881
0.035293415
-0.045208693
0.044287855
-0.053453081
0.054017775
-0.061890015
0.064328718
-0.070406083
0.075051129
-0.078892885
0.086009522
-0.087252706
0.097032496
-0.095403703
0.10796246
-0.10328398
0.11866396
-0.11085393
0.12902965
-0.11809642
0.13898297
-0.12501509
0.14847491
-0.13163161
-0.13794521
0.15750582
0.00065088626
-0.0022583365
0.0025243417
-0.0075523168
0.0056036345
-0.013699086
0.0098644649
-0.0205924
0.015264611
-0.028134785
0.02173641
-0.036216714
0.029182481
-0.044715953
0.037474894
-0.053501106
0.046458002
-0.062436189
0.055954837
-0.07138685
0.065776432
-0.080227677
0.075733012
-0.088849466
0.085645717
-0.097165411
0.095357395
-0.10511538
0.10474121
-0.1126678
0.11370619
-0.11981891
0.12219937
-0.12658959
0.13020456
-0.13302029
0.137738
-0.13916504
-0.14506758
0.14486038
0.00073063585
-0.0029889723
0.0027920863
-0.0096137672
0.0061265744
-0.017033574
0.010666712
-0.025132538
0.01632265
-0.033790723
0.022975244
-0.042869308
0.030474429
-0.052215139
0.038642398
-0.061669075
0.047281188
-0.071074978
0.056183732
-0.080289395
0.065146885
-0.089190829
0.073984598
-0.097687179
0.082539482
-0.10572029
0.090691299
-0.1132672
0.098361452
-0.12033795
0.1055133
-0.12697076
0.11214879
-0.13322508
0.1183024
-0.1391739
0.12403362
-0.14489626
-0.15046331
0.12942934
0.00080073121
-0.0037897035
0.0030139161
-0.011826952
0.0065328943
-0.020552552
0.011240052
-0.029839696
0.016992697
-0.039543368
0.023618545
-0.049495155
0.030918215
-0.059514809
0.038673318
-0.069424177
0.046658772
-0.079060433
0.054657397
-0.08828802
0.062474458
-0.097007891
0.069949954
-0.10516268
0.076966963
-0.1127373
0.0834551
-0.11975534
0.08938911
-0.12627196
0.094783313
-0.13236496
0.099683304
-0.13812507
0.10415649
-0.14364709
0.1082831
-0.14902287
-0.15433357
0.11215337
0.00085605869
-0.0046457623
0.0031720606
-0.014142954
0.0067872257
-0.024167718
0.011529802
-0.034582272
0.017203434
-0.045216999
0.023586548
-0.05587827
0.030439875
-0.066368135
0.037519328
-0.076503631
0.044591799
-0.086132903
0.051451003
-0.095147225
0.057930632
-0.10348752
0.063912776
-0.11114482
0.069330644
-0.11815517
0.074165692
-0.12459038
0.078440254
-0.13054652
0.082207335
-0.13613204
0.085539499
-0.14145724
0.088518557
-0.14662615
0.091227354
-0.15173167
-0.15685206
0.093745837
0.00089026235
-0.0055360246
0.0032482831
-0.016500975
0.006857622
-0.027777056
0.011492464
-0.039217114
0.016906809
-0.050631345
0.022838895
-0.061810356
0.02902367
-0.07255291
0.03520925
-0.082689212
0.041173928
-0.092097581
0.046740396
-0.10071369
0.051784656
-0.10853178
0.056238407
-0.11559857
0.060085138
-0.1220019
0.063351246
-0.12785649
0.066094212
-0.13328949
0.068390053
-0.13842788
0.070321919
-0.1433891
0.071971231
-0.14827546
0.07341192
-0.15317236
-0.15814771
0.074707571
0.00089981811
-0.0064358428
0.0032333803
-0.018834537
0.0067291638
-0.03127284
0.011111176
-0.043599126
0.016092485
-0.055612653
0.021384623
-0.067102493
0.026713884
-0.077882172
0.031839116
-0.087814443
0.036567085
-0.096825551
0.040762271
-0.10490888
0.044349473
-0.11211898
0.047309348
-0.11855845
0.049668403
-0.12436096
0.051485811
-0.1296739
0.052839521
-0.1346432
0.053813814
-0.13940218
0.054489704
-0.14406499
0.054938812
-0.14872457
0.055220538
-0.15345408
0.055380972
-0.15830814
-0.00020237827
0.00020237828
-5.0937291e-12
-0.00067774648
0.00047536821
-9.1742309e-12
-0.0013424258
0.00066467931
-1.255515e-11
-0.0021322941
0.00078986836
-1.4784858e-11
-0.002995773
0.00086347893
-1.5957499e-11
-0.0038907402
0.00089496719
-1.6365411e-11
-0.0047822956
0.00089155547
-1.6447117e-11
-0.0056408927
0.00085859713
-1.6115505e-11
-0.0064408677
0.00079997498
-1.5577682e-11
-0.0071592886
0.00071842089
-1.4691682e-11
-0.0077750369
0.00061574838
-1.3621686e-11
-0.0082680726
0.00049303565
-1.2257718e-11
-0.0086188538
0.00035078126
-1.0744059e-11
-0.0088079042
0.00018905041
-9.0138202e-12
-0.0088155573
7.6530748e-06
-7.0516059e-12
-0.0086219804
-0.00019357694
-4.930992e-12
-0.0082074383
-0.0004145421
-2.648364e-12
-0.0075518881
-0.00065555011
-7.0597047e-14
-0.0066345738
-0.00091731439
2.5984211e-12
-0.0011862313
-0.0054483424
5.2852734e-12
-0.00018797449
0.00039035277
-0.0006250071
0.00091240083
-0.0012287534
0.0012684256
-0.0019351948
0.0014963097
-0.0026921396
0.0016204238
-0.0034562846
0.0016591121
-0.0041910678
0.0016263387
-0.0048648595
0.0015323889
-0.0054495248
0.0013846402
-0.0059192877
0.0011881838
-0.0062498164
0.00094627709
-0.0064174812
0.00066070047
-0.0063987498
0.00033204984
-0.006169708
-3.9991379e-05
-0.0057057349
-0.00045632
-0.0049814226
-0.00091788928
-0.0039707919
-0.0014251728
-0.0026472133
-0.0019791287
-0.00098325701
-0.0025812707
-0.0032017829
0.0010322945
-0.00015892787
0.00054928064
-0.0005188915
0.0012723645
-0.0010007701
0.0017503042
-0.0015412596
0.0020367992
-0.0020873501
0.0021665143
-0.0025937355
0.0021654975
-0.0030208687
0.0020534718
-0.0033332941
0.0018448143
-0.0034983026
0.0015496488
-0.0034848553
0.0011747364
-0.0032626992
0.00072412102
-0.0028016481
0.00019964936
-0.0020709484
-0.00039864991
-0.0010387652
-0.0010721745
0.00032824659
-0.0018233318
0.0020652194
-0.0026548621
0.0042090323
-0.0035689857
0.006798005
-0.0045681014
0.0098718289
-0.0056550946
-0.0067797385
0.013449785
-0.00011756696
0.0006668476
-0.00036699855
0.001521796
-0.00067351365
0.0020568193
-0.00097482565
0.0023381112
-0.001216854
0.0024085427
-0.0013515941
0.0023002377
-0.0013354599
0.0020373375
-0.0011278287
0.0016371832
-0.00068984541
0.0011116655
1.6530134e-05
0.00046836087
0.0010293072
-0.00028865604
0.002387111
-0.0011581545
0.0041297281
-0.002141267
0.0062985878
-0.0032410342
0.0089372682
-0.0044620122
0.012092053
-0.0058096469
0.015812306
-0.0072892388
0.020150171
-0.0089059661
0.025160358
-0.010665282
-0.012492617
0.030873237
-6.6907633e-05
0.00073375523
-0.00017916649
0.0016340549
-0.00026653378
0.0021441866
-0.0002676914
0.0023392688
-0.00012719415
0.0022680454
0.00020616706
0.0019668765
0.00078069377
0.0014628108
0.0016429494
0.00077492753
0.0028387289
-8.4114075e-05
0.0044138448
-0.001106755
0.0064146903
-0.0022895015
0.0088886561
-0.0036321203
0.011884456
-0.0051370666
0.015452455
-0.0068090335
0.019645047
-0.0086546038
0.024517269
-0.01068187
0.030127687
-0.012899656
0.036538898
-0.015317177
0.043818299
-0.017944683
-0.020682538
0.052008219
-9.9846143e-06
0.00074373984
3.4535021e-05
0.0015895353
0.00019989028
0.0019788314
0.00054676592
0.0019923931
0.0011322474
0.0016825639
0.0020109815
0.0010881424
0.0032361404
0.00023765185
0.0048603047
-0.00084923677
0.006936121
-0.0021599303
0.009516676
-0.00368731
0.012655705
-0.0054285309
0.016407698
-0.0073841129
0.020827823
-0.0095571913
0.025971767
-0.011952978
0.031895639
-0.014578476
0.038656266
-0.017442498
0.046312383
-0.020555773
0.054926686
-0.02393148
0.064569673
-0.027587669
-0.031405593
0.075292728
5.0751316e-05
0.00069298852
0.00026565779
0.0013746288
0.00070825442
0.0015362347
0.0014390304
0.0012616172
0.0025168204
0.00060477394
0.0039995665
-0.00039460371
0.0059449144
-0.0017076961
0.0084106029
-0.0033149253
0.011454594
-0.005203921
0.01513504
-0.0073677567
0.019510021
-0.0098035113
0.024637009
-0.012511101
0.03057214
-0.015492323
0.037369313
-0.018750151
0.045079255
-0.022288418
0.053748979
-0.026112221
0.063422593
-0.030229387
0.074144698
-0.034653585
0.085969328
-0.039412299
-0.044388502
0.098952237
0.00011379631
0.00057919221
0.00050850343
0.00097992167
0.0012459824
0.00079875578
0.0023867776
0.00012082192
0.0039912408
-0.00099968927
0.0061198758
-0.0025232387
0.0088333195
-0.0044211398
0.012192165
-0.0066737706
0.016256556
-0.0092683124
0.021085444
-0.012196644
0.026735545
-0.015453613
0.03326002
-0.019035576
0.040706881
-0.022939184
0.049117188
-0.027160457
0.058523149
-0.031694379
0.0689465
-0.036535572
0.080398319
-0.041681206
0.092882146
-0.047137412
0.10640548
-0.052935636
-0.05899567
0.12101265
0.00017849582
0.00040069639
0.00076002991
0.00039838758
0.0018053389
-0.00024655324
0.0033747137
-0.0014485529
0.0055289954
-0.003153971
0.0083293193
-0.0053235626
0.01183649
-0.0079283103
0.016110058
-0.010947339
0.021207042
-0.014365296
0.027180303
-0.018169905
0.034076617
-0.022349927
0.041934477
-0.026893436
0.05078166
-0.031786367
0.060632592
-0.03701139
0.071485498
-0.042547285
0.083319389
-0.048369463
0.096091859
-0.054453677
0.10974042
-0.060785977
0.124196
-0.067391211
-0.07427462
0.13947495
0.00024512727
0.0010199494
0.0023833404
0.0043938624
0.0071105501
0.010591905
0.014894312
0.020070116
0.026165378
0.033217379
0.041252016
0.050281249
0.060300737
0.071287743
0.08319914
0.095968908
0.10950341
0.1236638
0.13818333
0.15258761
-0.0035077161
-0.0019406263
1.0613587e-11
-0.0012859301
-0.002221786
1.4619395e-11
0.0011946803
-0.0024806104
1.8863157e-11
0.003877216
-0.0026825357
2.2052136e-11
0.0067348733
-0.0028576573
2.6383182e-11
0.0097503461
-0.0030154729
2.7182786e-11
0.0129047
-0.0031543539
2.9597311e-11
0.016179912
-0.0032752123
3.0755844e-11
0.019560281
-0.0033803692
3.1092622e-11
0.023031589
-0.0034713072
3.0596866e-11
0.026580547
-0.0035489588
2.8838642e-11
0.030194733
-0.0036141855
2.5934418e-11
0.033862502
-0.003667769
2.1694846e-11
0.037572858
-0.0037103562
1.6458844e-11
0.04131535
-0.0037424919
1.0193027e-11
0.045080006
-0.0037646556
3.3549994e-12
0.048857284
-0.0037772786
-3.9905911e-12
0.052638042
-0.0037807576
-1.1302039e-11
0.056413511
-0.0037754689
-1.845443e-11
0.060175291
-0.0037617805
-2.4898064e-11
0.063915351
-0.0037400602
-3.0566268e-11
0.067626034
-0.0037106822
-3.5015118e-11
0.071300065
-0.003674031
-3.8341052e-11
0.074930568
-0.0036305036
-4.0231675e-11
0.078511077
-0.0035805092
-4.0922258e-11
0.082035546
-0.003524469
-4.0114563e-11
0.085498359
-0.0034628128
-3.8032828e-11
0.088894337
-0.0033959772
-3.4196276e-11
0.092218738
-0.0033244013
-2.8691482e-11
0.095467261
-0.0032485232
-2.0803686e-11
0.098636038
-0.003168777
-1.0613182e-11
0.10172163
-0.0030855889
2.5823702e-12
0.104721
-0.0029993746
1.8226589e-11
0.10763154
-0.0029105374
3.6443692e-11
0.11045101
-0.0028194666
5.5405738e-11
0.11317754
-0.002726538
7.4117644e-11
0.11580966
-0.002632114
8.8840671e-11
0.1183462
-0.0025365468
9.7459848e-11
0.12078639
-0.0024401853
9.4345533e-11
0.12312976
-0.0023433758
7.7657722e-11
0.12537627
-0.0022465044
4.3439205e-11
0.12752619
-0.0021499221
-6.8064127e-12
0.12958051
-0.0020543187
-6.8987891e-11
0.13154019
-0.0019596829
-1.3224354e-10
0.13340933
-0.0018691353
-1.8160029e-10
0.13518643
-0.0017770972
-1.9754515e-10
0.13689593
-0.0017095078
-1.5748163e-10
0.13849371
-0.0015977744
-6.1778942e-11
0.14018057
-0.0016868572
1.1541959e-10
-0.0013310701
3.1578932e-10
0.0028529079
-0.0037612397
0.0049500522
-0.0043189303
0.0072929088
-0.0048234669
0.0098190355
-0.0052086624
0.012507371
-0.005545993
0.01534559
-0.0058536922
0.018316952
-0.0061257158
0.02140505
-0.0063633102
0.024595865
-0.0065711841
0.027876635
-0.0067520767
0.031235227
-0.0069075509
0.03466016
-0.007039119
0.038140578
-0.007148187
0.041666134
-0.0072359122
0.04522691
-0.007303268
0.048813373
-0.0073511185
0.052416344
-0.0073802491
0.056026977
-0.0073913907
0.059636753
-0.0073852449
0.063237478
-0.007362506
0.066821293
-0.0073238753
0.070380684
-0.0072700727
0.073908496
-0.0072018431
0.077397952
-0.0071199595
0.080842665
-0.0070252228
0.084236655
-0.0069184584
0.087574354
-0.0068005118
0.090850619
-0.0066722424
0.094060734
-0.0065345163
0.097200409
-0.0063881984
0.10026578
-0.0062341462
0.10325339
-0.0060732024
0.10616021
-0.0059061896
0.10898358
-0.0057339066
0.11172123
-0.0055571248
0.11437129
-0.0053765893
0.11693219
-0.0051930201
0.11940276
-0.0050071168
0.12178215
-0.0048195741
0.12406986
-0.0046310814
0.12626576
-0.0044424096
0.1283701
-0.0042542592
0.13038379
-0.0040680069
0.13230774
-0.0038836342
0.13414595
-0.00370735
0.13589695
-0.0035280963
0.13758472
-0.0033972742
0.13916615
-0.0031792068
0.14083686
-0.0033575671
-0.0026596857
0.015021119
-0.0053325741
0.016852216
-0.0061500279
0.01890575
-0.006877001
0.021111793
-0.0074147047
0.023458709
-0.0078929092
0.025942846
-0.0083378295
0.028551586
-0.0087344558
0.031271449
-0.0090831728
0.034091334
-0.0093910689
0.03700101
-0.0096617535
0.039990359
-0.009896899
0.043049518
-0.010098278
0.046168963
-0.010267632
0.049339439
-0.010406388
0.052551916
-0.010515745
0.055797583
-0.010596785
0.059067849
-0.010650516
0.062354353
-0.010677895
0.065648972
-0.010679864
0.06894384
-0.010657374
0.07223137
-0.010611405
0.075504274
-0.010542977
0.078755588
-0.010453156
0.081978688
-0.01034306
0.085167318
-0.010213853
0.088315599
-0.010066739
0.091418046
-0.0099029587
0.094469577
-0.0097237734
0.097465517
-0.0095304563
0.1004016
-0.0093242834
0.10327397
-0.0091065183
0.10607918
-0.0088784058
0.10881415
-0.008641162
0.11147621
-0.0083959685
0.11406305
-0.0081439684
0.11657273
-0.007886266
0.11900364
-0.0076239309
0.12135453
-0.0073580038
0.12362447
-0.0070895195
0.1258129
-0.0068195071
0.12791961
-0.0065491191
0.12994476
-0.0062794049
0.13188917
-0.0060124221
0.1337537
-0.0057481603
0.13554218
-0.0054958335
0.13725323
-0.00523915
0.13890987
-0.0050539146
0.14047133
-0.0047406647
0.1421226
-0.0050088381
-0.0039965387
0.032056525
-0.0065158625
0.033471719
-0.007565222
0.03507722
-0.0084825013
0.03680005
-0.0091375348
0.038640895
-0.0097337548
0.040606053
-0.010302988
0.042688352
-0.010816755
0.044878269
-0.01127309
0.047168228
-0.011681027
0.049551
-0.012044526
0.052018878
-0.012364777
0.054563906
-0.012643306
0.057178072
-0.012881798
0.059853334
-0.01308165
0.06258163
-0.013244041
0.065354916
-0.013370071
0.068165209
-0.013460809
0.071004634
-0.013517319
0.073865457
-0.013540686
0.076740125
-0.013532043
0.079621307
-0.013492587
0.082501922
-0.013423592
0.085375176
-0.01332641
0.088234586
-0.01320247
0.091074008
-0.013053274
0.093887654
-0.012880385
0.096670109
-0.012685414
0.099416345
-0.012470009
0.10212172
-0.012235833
0.10478199
-0.011984556
0.10739331
-0.011717835
0.10995221
-0.011437303
0.1124556
-0.011144555
0.11490078
-0.010841146
0.11728539
-0.010528579
0.11960743
-0.010208309
0.12186525
-0.0098817487
0.12405752
-0.009550273
0.12618325
-0.009215252
0.1282418
-0.0088780524
0.13023288
-0.0085402054
0.13215659
-0.0082031105
0.13401366
-0.0078694974
0.13580489
-0.0075393885
0.13753394
-0.0072248796
0.1391996
-0.0069048124
0.14082352
-0.0066778322
0.1423684
-0.0062855432
0.14400396
-0.0066444
-0.005357523
0.052648508
-0.0071561516
0.05348909
-0.0084058038
0.054483199
-0.0094766105
0.055565148
-0.010219484
0.056749753
-0.01091836
0.058051309
-0.011604543
0.059468326
-0.012233772
0.060995936
-0.0128007
0.062629928
-0.01331502
0.064365706
-0.013780303
0.066197747
-0.014196818
0.068119783
-0.014565341
0.070125049
-0.014887064
0.072206443
-0.015163044
0.074356617
-0.015394216
0.07656806
-0.015581514
0.078833178
-0.015725928
0.081144378
-0.015828519
0.083494131
-0.015890439
0.085875033
-0.015912946
0.08827986
-0.015897413
0.090701608
-0.01584534
0.093133538
-0.01575834
0.095569208
-0.015638141
0.098002504
-0.01548657
0.10042766
-0.015305539
0.10283927
-0.015097026
0.10523232
-0.014863054
0.10760216
-0.014605676
0.10994455
-0.014326947
0.11225562
-0.014028911
0.11453191
-0.013713583
0.11677029
-0.013382938
0.11896804
-0.013038893
0.12112277
-0.012683309
0.12323245
-0.012317991
0.12529538
-0.011944685
0.12731021
-0.011565104
0.12927591
-0.01118095
0.13119179
-0.010793929
0.13305753
-0.010405951
0.13487319
-0.010018769
0.13663947
-0.0096357764
0.13835714
-0.0092570601
0.14002971
-0.0088974428
0.14165626
-0.008531363
0.14325676
-0.0082783339
0.14479834
-0.0078271287
0.14643183
-0.0082778838
-0.0067658778
0.075221706
-0.0070851298
0.07532666
-0.0085107574
0.07555102
-0.0097009704
0.075851302
-0.010519766
0.076255541
-0.0113226
0.07678059
-0.012129592
0.077429485
-0.012882666
0.078202154
-0.013573369
0.079096907
-0.014209773
0.080110596
-0.014793991
0.081238976
-0.015325198
0.082476751
-0.015803117
0.083817738
-0.016228051
0.085255157
-0.016600463
0.086781831
-0.016920889
0.088390306
-0.017189989
0.090072966
-0.017408587
0.09182213
-0.017577684
0.093630156
-0.017698465
0.095489506
-0.017772295
0.097392813
-0.01780072
0.099332934
-0.017785462
0.101303
-0.017728408
0.10329645
-0.017631592
0.10530707
-0.017497183
0.10732898
-0.017327452
0.10935671
-0.017124758
0.11138517
-0.016891516
0.11340967
-0.016630175
0.11542591
-0.01634319
0.11743
-0.016033002
0.11941844
-0.015702019
0.1213881
-0.015352596
0.12333623
-0.014987026
0.12526045
-0.014607532
0.12715874
-0.014216272
0.12902939
-0.013815338
0.13087106
-0.01340678
0.13268276
-0.012992641
0.1344638
-0.012574971
0.13621391
-0.012156065
0.13793318
-0.011738039
0.13962235
-0.011324939
0.14128224
-0.010916959
0.14291627
-0.010531469
0.14452394
-0.010139033
0.14612337
-0.0098777647
0.14768685
-0.0093906093
0.14934384
-0.0099348726
-0.0082537162
0.098025237
-0.0061581302
0.097257958
-0.0077434784
0.096581661
-0.0090246735
0.095997218
-0.0099353224
0.095540757
-0.010866138
0.09522351
-0.011812345
0.095050844
-0.01271
0.095026762
-0.013549288
0.095150797
-0.014333808
0.095419683
-0.015062878
0.095829061
-0.015734576
0.09637352
-0.016347576
0.097046576
-0.016901107
0.097840996
-0.017394883
0.098749096
-0.017828989
0.099762905
-0.018203798
0.10087429
-0.018519967
0.10207505
-0.018778453
0.10335708
-0.018980495
0.10471238
-0.019127595
0.10613317
-0.019221507
0.10761192
-0.019264215
0.10914143
-0.019257917
0.11071484
-0.019204998
0.11232566
-0.019108001
0.11396781
-0.018969604
0.11563563
-0.018792577
0.11732388
-0.018579764
0.11902775
-0.018334043
0.12074286
-0.018058298
0.12246525
-0.017755398
0.1241914
-0.017428165
0.12591816
-0.01707936
0.12764281
-0.016711673
0.12936299
-0.016327711
0.13107671
-0.015929998
0.13278237
-0.015520992
0.13447868
-0.015103093
0.13616474
-0.014678704
0.13784
-0.014250226
0.13950429
-0.013820356
0.14115783
-0.013391583
0.1428015
-0.012968608
0.14443631
-0.012551767
0.14606564
-0.0121608
0.14768956
-0.01176295
0.14932428
-0.01151249
0.15094774
-0.011014061
0.15266682
-0.011653956
-0.009862798
0.11918901
-0.0043344843
0.1174964
-0.0060508723
0.11585688
-0.007385153
0.11435435
-0.008432791
0.11302504
-0.0095368342
0.11186648
-0.010653778
0.11088411
-0.011727638
0.11008424
-0.01274941
0.10946625
-0.013715827
0.10902557
-0.014622197
0.10875638
-0.015465386
0.10865202
-0.016243214
0.10870489
-0.016953978
0.10890669
-0.017596676
0.10924868
-0.018170979
0.10972192
-0.018677044
0.1103174
-0.019115441
0.11102609
-0.019487149
0.11183912
-0.019793528
0.11274782
-0.020036286
0.11374376
-0.020217448
0.11481887
-0.020339326
0.11596544
-0.020404492
0.11717618
-0.020415739
0.11844423
-0.020376049
0.11976318
-0.020288554
0.1211271
-0.020156501
0.12253055
-0.019983209
0.12396854
-0.019772036
0.12543659
-0.019526345
0.12693066
-0.019249469
0.12844719
-0.018944692
0.12998305
-0.018615221
0.13153555
-0.018264173
0.13310241
-0.017894572
0.13468175
-0.017509343
0.13627209
-0.01711133
0.13787232
-0.016703318
0.1394817
-0.016288083
0.14109988
-0.015868412
0.14272694
-0.015447412
0.14436333
-0.015027972
0.14601016
-0.014615445
0.14766875
-0.014210358
0.14934259
-0.013834639
0.1510324
-0.013452762
0.15275257
-0.013232659
0.1544869
-0.012748387
0.1563196
-0.013486659
-0.011644471
0.13689598
-0.0017555137
0.13437802
-0.0035329108
0.13181945
-0.0048265838
0.12946238
-0.0060757243
0.12733402
-0.0074084773
0.12541575
-0.0087355052
0.12371039
-0.010022279
0.12222304
-0.011262054
0.12095213
-0.012444924
0.11989191
-0.013561975
0.11903486
-0.014608338
0.11837264
-0.015580994
0.11789625
-0.01647759
0.11759617
-0.017296592
0.11746252
-0.018037333
0.1174853
-0.018699823
0.11765449
-0.019284629
0.11796017
-0.019792826
0.1183926
-0.020225963
0.11894234
-0.020586022
0.11960026
-0.020875366
0.12035763
-0.0210967
0.12120618
-0.021253039
0.12213809
-0.02134765
0.12314606
-0.021384021
0.12422332
-0.021365809
0.12536361
-0.021296793
0.12656124
-0.021180837
0.12781104
-0.021021839
0.12910839
-0.020823698
0.1304492
-0.020590272
0.13182986
-0.020325357
0.13324729
-0.020032655
0.13469888
-0.019715759
0.13618246
-0.019378154
0.13769633
-0.019023206
0.13923918
-0.018654188
0.14081016
-0.018274296
0.1424088
-0.017886722
0.14403505
-0.017494658
0.14568929
-0.017101658
0.14737235
-0.016711029
0.1490857
-0.016328793
0.15083105
-0.015955705
0.15261212
-0.015615715
0.15443043
-0.015271065
0.15629861
-0.015100844
0.15820648
-0.014656257
0.160216
-0.015496176
-0.013658774
0.15005211
0.00077998732
0.14676317
-0.00024396591
0.14346583
-0.0015292461
0.14041805
-0.0030279464
0.13762316
-0.0046135847
0.1350749
-0.0061872421
0.1327751
-0.0077224814
0.13072385
-0.0092108056
0.12891871
-0.010639785
0.12735448
-0.011997746
0.12602334
-0.013277193
0.12491587
-0.014473527
0.1240219
-0.015583623
0.12333078
-0.016605467
0.12283151
-0.017538067
0.12251299
-0.018381305
0.12236415
-0.019135785
0.12237407
-0.019802742
0.12253209
-0.020383983
0.12282789
-0.020881823
0.12325156
-0.021299037
0.12379366
-0.021638798
0.12444525
-0.021904634
0.12519797
-0.022100366
0.12604401
-0.022230062
0.12697618
-0.02229798
0.1279879
-0.022308511
0.1290732
-0.022266134
0.13022672
-0.022175363
0.13144372
-0.0220407
0.13272005
-0.021866599
0.13405212
-0.021657428
0.13543691
-0.021417445
0.13687193
-0.021150781
0.13835521
-0.020861429
0.13988525
-0.020553248
0.14146104
-0.020229982
0.14308203
-0.019895285
0.14474811
-0.019552797
0.1464596
-0.019206155
0.14821733
-0.018859389
0.15002255
-0.018516248
0.15187721
-0.01818345
0.15378349
-0.017861983
0.15574551
-0.017577742
0.15776548
-0.017291028
0.15985491
-0.017190274
0.16200805
-0.0168094
0.16426965
-0.017757773
-0.015970677
0.18890881
0.0053820881
-0.19351091
0.18509877
0.0035660708
0.18170674
0.0018627872
0.17856161
0.00011717812
0.17562606
-0.0016780267
0.17287503
-0.003436218
0.17029032
-0.0051377667
0.16786292
-0.0067834071
0.16558896
-0.0083658223
0.16346627
-0.0098750626
0.16149301
-0.011303929
0.15966705
-0.012647572
0.15798577
-0.013902335
0.15644585
-0.015065554
0.1550434
-0.016135608
0.15377392
-0.017111832
0.15263251
-0.017994371
0.15161386
-0.018784092
0.15071239
-0.01948252
0.14992234
-0.020091771
0.1492378
-0.020614497
0.14865282
-0.021053819
0.14816146
-0.021413272
0.14775784
-0.021696741
0.14743618
-0.021908405
0.14719087
-0.022052673
0.14701648
-0.022134122
0.14690779
-0.022157446
0.14685983
-0.022127395
0.14686785
-0.022048727
0.14692742
-0.021926163
0.14703434
-0.021764348
0.14718471
-0.021567822
0.14737493
-0.021341002
0.14760167
-0.021088164
0.14786188
-0.020813455
0.1481528
-0.020520903
0.14847196
-0.020214448
0.14881719
-0.019898023
0.14918659
-0.01957556
0.14957862
-0.019251417
0.14999203
-0.01892966
0.15042606
-0.018617478
0.15088018
-0.018316104
0.15135501
-0.018052571
0.1518504
-0.017786416
0.15237082
-0.017710699
0.15291198
-0.017350556
0.15349683
-0.018342629
-0.016563334
0.2168577
0.0087804186
-0.22025603
0.21338381
0.0070399576
0.210171
0.0050755991
0.20706569
0.0032224908
0.20401909
0.0013685688
0.20106217
-0.00047929784
0.19821181
-0.002287405
0.19547252
-0.0040441165
0.1928502
-0.0057435033
0.19035168
-0.0073765468
0.18798217
-0.0089344164
0.18574506
-0.010410459
0.18364234
-0.011799617
0.18167472
-0.013097931
0.17984165
-0.014302544
0.17814152
-0.0154117
0.17657178
-0.016424627
0.1751291
-0.017341419
0.17380955
-0.018162968
0.17260866
-0.018890884
0.1715216
-0.019527429
0.17054322
-0.02007544
0.1696682
-0.020538258
0.16889112
-0.02091966
0.1682065
-0.021223788
0.16760891
-0.021455078
0.16709298
-0.021618191
0.16665348
-0.021717951
0.16628536
-0.021759275
0.16598376
-0.021747124
0.16574404
-0.021686445
0.16556183
-0.021582131
0.16543299
-0.021438983
0.16535368
-0.02126169
0.16532032
-0.021054811
0.16532964
-0.020822777
0.16537865
-0.020569906
0.16546463
-0.020300432
0.1655852
-0.020018591
0.16573827
-0.019728627
0.16592208
-0.019435227
0.16613523
-0.019142816
0.16637673
-0.018858974
0.16664607
-0.018585444
0.1669431
-0.018349603
0.16726906
-0.01811237
0.16762316
-0.018064796
0.1680137
-0.017741098
0.16842264
-0.018751573
-0.017037189
0.24376662
0.011504372
-0.24649057
0.24091618
0.0098903948
0.23806297
0.0079288089
0.23521601
0.0060694524
0.23233821
0.0042463712
0.22945039
0.0024085219
0.22658377
0.00057921205
0.22375765
-0.0012179989
0.22098795
-0.0029738027
0.2182906
-0.0046791992
0.21567947
-0.0063232802
0.21316554
-0.0078965332
0.21075744
-0.0093915132
0.20846171
-0.010802207
0.206283
-0.012123833
0.20422419
-0.013352883
0.20228662
-0.014487058
0.20047034
-0.01552514
0.19877426
-0.016466893
0.19719636
-0.017312983
0.19573382
-0.018064887
0.19438319
-0.018724807
0.19314052
-0.019295586
0.19200148
-0.019780622
0.19096148
-0.020183785
0.19001573
-0.020509337
0.18915939
-0.020761849
0.18838757
-0.020946128
0.18769544
-0.02106714
0.18707826
-0.021129945
0.18653145
-0.021139638
0.18605061
-0.021101296
0.18563157
-0.021019934
0.18527036
-0.02090048
0.18496329
-0.020747748
0.18470696
-0.020566441
0.18449821
-0.02036116
0.18433421
-0.020136435
0.18421243
-0.019896804
0.18413063
-0.019646833
0.18408695
-0.01939154
0.18407988
-0.019135747
0.18410824
-0.018887336
0.18417162
-0.018648824
0.18426911
-0.018447097
0.18440343
-0.018246693
0.18456819
-0.01822955
0.18478526
-0.017958173
0.18499075
-0.018957064
-0.017369788
0.26927438
0.013537323
-0.27130734
0.26710634
0.012058438
0.26476458
0.010270569
0.26232536
0.0085086774
0.25979661
0.0067751206
0.25718851
0.0050166162
0.25452719
0.003240529
0.25183683
0.0014723682
0.24913741
-0.00027438315
0.24644874
-0.0019905323
0.24379012
-0.0036646559
0.24117867
-0.005285087
0.23862913
-0.0068419718
0.23615398
-0.0083270596
0.23376352
-0.0097333744
0.23146592
-0.011055275
0.22926734
-0.012288483
0.22717219
-0.013429994
0.22518328
-0.014477976
0.22330198
-0.01543169
0.22152849
-0.016291392
0.21986193
-0.017058243
0.21830055
-0.01773421
0.2168419
-0.018321971
0.21548293
-0.018824817
0.21422016
-0.019246563
0.21304976
-0.019591448
0.21196768
-0.01986405
0.21096974
-0.020069205
0.21005171
-0.020211917
0.20920938
-0.020297302
0.2084386
-0.020330513
0.20773536
-0.020316697
0.20709583
-0.02026095
0.20651638
-0.020168295
0.2059936
-0.020043667
0.20552437
-0.019891927
0.20510582
-0.019717881
0.20473538
-0.019526365
0.20441081
-0.019322266
0.20413019
-0.019110925
0.20389203
-0.018897585
0.20369505
-0.018690358
0.20353896
-0.018492729
0.20342227
-0.01833041
0.20334891
-0.018173324
0.20330767
-0.018188318
0.2033318
-0.017982298
0.20331607
-0.018941341
-0.01753895
0.29298515
0.014868463
-0.29431629
0.29150591
0.01353768
0.28978342
0.011993061
0.28788479
0.01040731
0.28584488
0.0088150303
0.28367451
0.0071869872
0.28139209
0.0055229498
0.27902086
0.0038435959
0.27658213
0.0021643489
0.27409605
0.0004955421
0.27158284
-0.0011514398
0.2690622
-0.0027644536
0.26655247
-0.0043322447
0.26407025
-0.0058448304
0.26163025
-0.0072933824
0.25924526
-0.0086702848
0.25692604
-0.0099692553
0.25468139
-0.011185347
0.2525183
-0.012314891
0.25044205
-0.013355442
0.24845636
-0.014305702
0.24656356
-0.015165439
0.24476475
-0.015935395
0.24305996
-0.016617185
0.24144834
-0.017213195
0.23992826
-0.017726484
0.23849749
-0.018160682
0.23715333
-0.018519885
0.23589269
-0.018808567
0.23471225
-0.019031482
0.23360854
-0.019193588
0.232578
-0.019299971
0.23161708
-0.01935578
0.23072231
-0.019366184
0.22989035
-0.019336328
0.229118
-0.019271318
0.22840229
-0.019176223
0.22774051
-0.019056096
0.22713019
-0.018916042
0.22656918
-0.018761258
0.22605564
-0.018597391
0.22558817
-0.018430113
0.22516552
-0.018267708
0.22478754
-0.018114744
0.22445239
-0.017995258
0.22416482
-0.017885754
0.22390999
-0.017933495
0.22372947
-0.01780177
0.22348439
-0.01869627