/*--------------------------------*- C++ -*----------------------------------*\
  =========                 |
  \\      /  F ield         | OpenFOAM: The Open Source CFD Toolbox
   \\    /   O peration     | Website:  https://openfoam.org
    \\  /    A nd           | Version:  6
     \\/     M anipulation  |
\*---------------------------------------------------------------------------*/
FoamFile
{
    version     2.0;
    format      ascii;
    class       volVectorField;
    location    "178";
    object      U_0;
}
// * * * * * * * * * * * * * * * * * * * * * * * * * * * * * * * * * * * * * //

dimensions      [0 1 -1 0 0 0 0];

internalField   nonuniform List<vector> 
9200
(
(0.0010393481 0.0014199813 -5.9201856e-20)
(0.013676076 -0.0020583711 4.604255e-20)
(0.038313187 -0.0058665759 -3.8501744e-20)
(0.072274472 -0.0097635167 -6.0257772e-20)
(0.11376479 -0.013490044 1.8826967e-20)
(0.16158096 -0.016605677 3.2743888e-20)
(0.21467157 -0.018817308 -1.226801e-20)
(0.27206619 -0.019973917 9.2688633e-21)
(0.33285636 -0.020011253 1.6803431e-20)
(0.39616364 -0.018929086 1.4848077e-21)
(0.46111574 -0.016779854 -2.1456343e-20)
(0.52683707 -0.013657773 2.067001e-20)
(0.59245091 -0.0096880434 -4.0422156e-20)
(0.65709155 -0.0050158253 -2.1133908e-20)
(0.71992497 0.00020550872 5.9046541e-21)
(0.78017529 0.0058240381 -2.5131683e-20)
(0.83717087 0.011712751 2.5217123e-20)
(0.89046904 0.017918445 2.2243203e-20)
(0.93967099 0.024573339 -2.9929481e-22)
(0.98205214 0.028293303 -1.6691851e-21)
(0.0052521839 -0.0013462748 -1.7059357e-20)
(0.026962515 -0.0089890327 3.9747726e-20)
(0.061670144 -0.014809774 2.3576298e-20)
(0.10629494 -0.019172283 -1.1569762e-19)
(0.15873572 -0.022214013 -1.272709e-20)
(0.2175336 -0.023720705 7.3297101e-20)
(0.28137307 -0.023595118 -3.5476408e-20)
(0.34900615 -0.02186899 -8.390559e-21)
(0.41923936 -0.018645552 3.4287549e-20)
(0.49090962 -0.014080871 -4.3259591e-20)
(0.56287252 -0.0083759843 -3.0338491e-20)
(0.63400869 -0.0017666311 7.1921459e-20)
(0.70324353 0.0054883542 3.8294061e-20)
(0.76957606 0.013118588 -6.7976583e-20)
(0.83211272 0.020852033 1.4623697e-20)
(0.89010063 0.02841965 -3.6733416e-20)
(0.94296943 0.035569611 -1.3777198e-20)
(0.99043257 0.042140817 7.0974811e-20)
(1.0323563 0.047715231 2.9642002e-20)
(1.0669351 0.049139605 -8.3478355e-20)
(0.010858432 -0.0040424183 3.6773463e-20)
(0.043953432 -0.015431085 2.5047324e-21)
(0.090515472 -0.022552295 2.2341709e-20)
(0.14711145 -0.026497374 9.8116857e-22)
(0.21134262 -0.027886316 -4.0773942e-20)
(0.28146778 -0.026795136 1.8576409e-20)
(0.35587053 -0.023382752 1.3420302e-20)
(0.43299022 -0.017921564 -5.0327715e-20)
(0.51132495 -0.01073568 5.7261873e-20)
(0.58942633 -0.0021839128 1.4256693e-20)
(0.66590937 0.0073478695 -5.4300729e-20)
(0.73948059 0.017460223 -1.8237411e-20)
(0.80897622 0.027756517 9.0591595e-21)
(0.87340289 0.03785922 2.3444747e-20)
(0.93197387 0.047423986 -1.1362511e-20)
(0.98413392 0.056148907 2.787774e-20)
(1.0295742 0.0637891 -2.0188249e-20)
(1.0682648 0.07020431 -7.0123628e-20)
(1.1003324 0.075119287 -2.3796289e-20)
(1.1249114 0.076641139 4.8659848e-20)
(0.017957222 -0.0064221664 2.4508016e-20)
(0.064777021 -0.020694809 5.1039238e-20)
(0.12485233 -0.028060861 1.9881701e-20)
(0.19446973 -0.030464082 1.2990103e-20)
(0.27094941 -0.029094861 1.7275708e-20)
(0.35224891 -0.024389 -4.7720182e-20)
(0.43643153 -0.016825996 -2.5646862e-20)
(0.52162025 -0.0069766966 0)
(0.60602915 0.0045670031 1.3920623e-20)
(0.68798728 0.017211699 -5.8523441e-21)
(0.7659754 0.030373885 -9.793498e-20)
(0.8386747 0.043499591 -1.5774821e-20)
(0.9050155 0.05608657 6.5103227e-20)
(0.96421594 0.067704082 4.8442287e-22)
(1.0158037 0.078007655 -1.5725573e-21)
(1.0596158 0.086746725 2.1957505e-20)
(1.0957775 0.093772152 -5.2647234e-21)
(1.1246802 0.09906525 -6.1029763e-20)
(1.1468649 0.10259699 -4.5851257e-20)
(1.1622959 0.10341376 6.9520545e-20)
(0.02657943 -0.0082056916 -3.9194174e-21)
(0.089344052 -0.024033516 -5.1256226e-21)
(0.16430759 -0.030265002 5.6599422e-20)
(0.24758128 -0.029810036 1.853933e-20)
(0.33624172 -0.024513046 -3.1955073e-20)
(0.42795139 -0.015239879 1.2163842e-20)
(0.52047278 -0.0028513842 2.6402868e-21)
(0.61166376 0.011737072 3.3609179e-20)
(0.69954732 0.027640116 5.6599523e-21)
(0.78236859 0.04402874 -1.3204747e-20)
(0.85865429 0.060147691 6.0154068e-20)
(0.92726934 0.075340432 -5.8009378e-20)
(0.987457 0.089072816 -1.3216619e-19)
(1.0388533 0.10094897 -5.5773059e-21)
(1.0814727 0.11071703 8.315081e-20)
(1.1156657 0.11826398 0)
(1.142055 0.12360575 1.0118962e-20)
(1.161467 0.12689048 -1.5459778e-20)
(1.1748181 0.12829861 -8.5994638e-21)
(1.1826675 0.12744906 2.0992237e-20)
(0.036666922 -0.0090895832 -5.430904e-21)
(0.11731515 -0.024685367 4.3578755e-21)
(0.20811875 -0.028140191 -8.7629854e-21)
(0.30515712 -0.023414969 2.8472398e-20)
(0.40533552 -0.013075606 -2.9392667e-20)
(0.50607162 0.0015225993 -1.6927026e-20)
(0.60490508 0.019095123 3.7364242e-20)
(0.69954979 0.038365236 4.7595461e-21)
(0.78800413 0.058167624 -2.443607e-20)
(0.86863428 0.077482979 6.9867587e-20)
(0.94023996 0.095458612 5.2393442e-22)
(1.0020958 0.11143153 -8.0444354e-20)
(1.0539571 0.12494286 0)
(1.0960275 0.13573745 3.9542136e-20)
(1.1288924 0.14374837 5.5236032e-21)
(1.153428 0.14906886 -7.7566434e-20)
(1.1706992 0.15191906 -1.958693e-20)
(1.1818625 0.1526236 -1.2467638e-20)
(1.1880593 0.15152597 -1.4709394e-20)
(1.1901462 0.14858483 4.0420537e-20)
(0.048058884 -0.0087674084 -1.7277955e-20)
(0.14808315 -0.021932001 -2.219842e-21)
(0.25514078 -0.020797844 3.0380503e-20)
(0.36546395 -0.010412804 3.7484314e-20)
(0.47590435 0.0059015776 -1.9944736e-20)
(0.58374283 0.026269296 -6.9163044e-20)
(0.68644204 0.048977197 -2.7995805e-20)
(0.78176224 0.072417775 7.8929241e-20)
(0.86790217 0.095212461 8.5778204e-21)
(0.94358938 0.11624959 -2.4873491e-20)
(1.0081261 0.13469824 1.3642213e-20)
(1.0613872 0.15001552 -4.319453e-21)
(1.1037695 0.16193655 0)
(1.1360977 0.17044423 2.7203493e-20)
(1.1595048 0.17572303 -7.9322444e-20)
(1.1753022 0.17810363 -3.147554e-20)
(1.1848571 0.17800806 8.1054608e-20)
(1.1894923 0.17590937 -4.2969869e-21)
(1.1904031 0.1722555 3.5561083e-21)
(1.1885081 0.16719289 2.7111581e-20)
(0.06048527 -0.0069573667 -3.2414609e-20)
(0.18077778 -0.015170387 -8.1624323e-20)
(0.30388938 -0.0075835332 2.579776e-21)
(0.42642568 0.0097033506 7.01618e-20)
(0.54535164 0.032631549 6.2424381e-20)
(0.65798118 0.058820038 -7.1574545e-20)
(0.76190902 0.086176501 -2.8275159e-22)
(0.85518312 0.1128523 8.5522591e-20)
(0.93645368 0.13737836 4.8828092e-20)
(1.0050417 0.15869368 -5.4218434e-20)
(1.0609358 0.17613561 -9.2334253e-20)
(1.1047245 0.18941351 -3.1589838e-21)
(1.1374761 0.1985594 4.2127881e-20)
(1.1605875 0.20385852 -6.605631e-21)
(1.1756249 0.20577014 -1.2868792e-20)
(1.1841778 0.20484913 1.9690815e-20)
(1.1877429 0.2016789 4.3880634e-20)
(1.1876455 0.1968258 -4.3859449e-20)
(1.1849955 0.19077876 -1.0232206e-19)
(1.1806251 0.18377371 2.4566891e-20)
(0.073537238 -0.0034329751 -3.4979754e-20)
(0.21422693 -0.0039890282 -1.7388606e-19)
(0.35251667 0.011839374 8.2103208e-20)
(0.48562811 0.037018337 9.276749e-20)
(0.61085395 0.066835553 5.7970576e-20)
(0.72576744 0.098481179 8.6107126e-21)
(0.82834822 0.12959696 -1.0624016e-19)
(0.91719018 0.15824268 0)
(0.99162765 0.18302814 -6.8748631e-20)
(1.0517523 0.20311205 -1.520242e-20)
(1.0983386 0.21814858 5.4703486e-20)
(1.132701 0.22821079 1.0973386e-20)
(1.1565111 0.23369256 -4.5613869e-20)
(1.1716069 0.23519942 -4.9081378e-20)
(1.1798205 0.2334433 2.4287687e-20)
(1.1828452 0.22915317 4.4822906e-20)
(1.182149 0.22300979 -5.5600429e-20)
(1.1789362 0.21560815 -1.0751126e-19)
(1.174147 0.20742217 -3.1513624e-21)
(1.1684568 0.19871873 2.7046411e-20)
(0.086650471 0.0019613858 -3.5449084e-21)
(0.24696025 0.011816636 8.7913209e-20)
(0.3988475 0.037492314 -1.6479221e-20)
(0.54040478 0.071218389 -8.4309105e-20)
(0.66949918 0.10778894 4.5164375e-20)
(0.7842197 0.14411544 4.91755e-20)
(0.88318959 0.17775669 5.5356821e-21)
(0.9657789 0.2068849 -9.9502568e-20)
(1.0321765 0.23038802 -2.5048795e-21)
(1.083333 0.24781552 5.0503569e-20)
(1.1208072 0.25926299 5.9854797e-21)
(1.146556 0.26523617 -1.9717204e-20)
(1.1627109 0.2665053 -7.5704644e-20)
(1.1713766 0.26396618 -6.2554054e-21)
(1.1744764 0.25852424 4.3533366e-20)
(1.1736549 0.25101083 3.7022024e-20)
(1.1702384 0.24213389 1.9793447e-20)
(1.1652404 0.23245868 -5.2994864e-20)
(1.1594015 0.22240411 1.2957451e-20)
(1.1532253 0.21223792 8.2659127e-20)
(-0.001293262 0.0014346603 -1.1234466e-21)
(-0.004745962 0.003187416 2.0646975e-21)
(-0.010771363 0.0041359056 8.7949563e-22)
(-0.017754293 0.0045395375 -2.4410997e-21)
(-0.024740326 0.0045654181 -1.4114837e-21)
(-0.031299602 0.0043260398 1.546006e-21)
(-0.037161338 0.0039035392 -6.870083e-21)
(-0.042147454 0.0033577225 -5.9573114e-21)
(-0.046157788 0.0027313816 1.1172003e-20)
(-0.049146202 0.0020548306 -9.7427539e-21)
(-0.051100666 0.0013493001 -1.9833172e-22)
(-0.052030454 0.00062942117 3.6673448e-21)
(-0.051957747 -9.4890668e-05 -6.3295676e-22)
(-0.050911889 -0.00081693204 2.2818757e-20)
(-0.048925783 -0.0015318468 3.0401189e-22)
(-0.046035343 -0.0022351766 -4.0882897e-20)
(-0.042281796 -0.0029222712 7.5385659e-21)
(-0.037703436 -0.0035910422 2.3864127e-20)
(-0.032308683 -0.0042399908 -4.3852405e-20)
(-0.026156948 -0.0048211179 -2.7739224e-20)
(-0.0016522005 0.0041808678 -5.3716033e-21)
(-0.0053974829 0.0092681414 1.0865442e-20)
(-0.011218513 0.012007448 -1.0191542e-20)
(-0.017658031 0.013153768 3.9229745e-21)
(-0.023856439 0.013195417 4.8121461e-21)
(-0.029433326 0.012462728 7.1324221e-22)
(-0.034152329 0.011197016 -2.2509502e-20)
(-0.037860387 0.0095738986 -2.0370242e-21)
(-0.040474307 0.007718988 2.0163548e-20)
(-0.04195893 0.0057212302 -5.0473625e-21)
(-0.042308957 0.0036428632 -2.17626e-20)
(-0.041537342 0.0015267102 4.8973194e-21)
(-0.039667715 -0.00059830917 2.2635434e-20)
(-0.036729081 -0.002712766 1.0308396e-20)
(-0.03275203 -0.0048026955 2.1854297e-20)
(-0.027769162 -0.0068555162 -1.977074e-20)
(-0.021824782 -0.0088582289 -2.1672957e-20)
(-0.014966252 -0.010804236 2.1184631e-20)
(-0.0071289934 -0.012679013 2.6810382e-20)
(0.0018743262 -0.014317237 1.5854776e-20)
(-0.0023034299 0.0065602349 -4.3568699e-21)
(-0.0065392259 0.0144802 -5.6387555e-21)
(-0.011892135 0.018710549 3.0723932e-22)
(-0.017211103 0.020428186 1.0959865e-21)
(-0.021819147 0.020400329 6.6918414e-21)
(-0.025431046 0.01915167 1.066517e-20)
(-0.027877237 0.017066291 -3.7227653e-21)
(-0.029053273 0.014423785 -1.889617e-20)
(-0.028909039 0.011424352 6.5413196e-21)
(-0.02743105 0.0082099038 1.2862576e-20)
(-0.024627711 0.0048797729 5.8340868e-21)
(-0.020520103 0.0015022336 1.8159114e-20)
(-0.015135976 -0.0018768703 1.7295923e-21)
(-0.008505384 -0.005227257 -3.3864546e-20)
(-0.00065687255 -0.0085276215 1.2020179e-21)
(0.0083810435 -0.011759123 -2.2139222e-20)
(0.0185569 -0.014904112 -2.4466317e-20)
(0.029802221 -0.017953771 4.5819737e-20)
(0.042305013 -0.020855138 2.5349363e-20)
(0.05673863 -0.023247789 1.2239382e-22)
(-0.0031290286 0.0083689728 -5.2833087e-21)
(-0.007896401 0.018336519 -8.4815311e-21)
(-0.012438989 0.023587816 4.3593057e-21)
(-0.016026538 0.025609665 4.1463464e-21)
(-0.018235026 0.025382751 2.0105712e-21)
(-0.018912653 0.023589326 7.3209984e-21)
(-0.017984717 0.020730276 9.3124813e-21)
(-0.015416707 0.017170379 -1.3511362e-21)
(-0.011207042 0.013171313 -1.1481951e-20)
(-0.0053752241 0.0089189283 -2.9071889e-20)
(0.0020481252 0.0045434315 6.1892309e-23)
(0.011026527 0.00013430259 4.0697839e-20)
(0.021522249 -0.0042489621 -1.838318e-20)
(0.033497882 -0.008567599 -1.2296093e-20)
(0.04692055 -0.012795563 5.5348938e-22)
(0.061760142 -0.016911875 3.230266e-20)
(0.077953069 -0.020901693 -1.4829552e-20)
(0.09539233 -0.024763402 -5.3339211e-20)
(0.11439853 -0.028379748 4.5765032e-20)
(0.13634547 -0.031073129 3.3013187e-20)
(-0.0039704107 0.0094657352 -6.8788974e-22)
(-0.0090916602 0.020487798 -1.2534744e-20)
(-0.012364473 0.026159094 -3.4144547e-20)
(-0.013552541 0.028143345 -5.7241645e-21)
(-0.012533239 0.027555013 -3.622275e-21)
(-0.0093167213 0.025188068 6.3051057e-21)
(-0.0039456381 0.021627414 -4.6461975e-21)
(0.0035261394 0.017298959 -8.8070301e-21)
(0.013036838 0.012508749 2.1899717e-20)
(0.024521265 0.0074744365 5.0567092e-21)
(0.037915569 0.0023488946 -2.5290304e-20)
(0.053157485 -0.0027627968 1.1078283e-20)
(0.070186916 -0.0077908908 0)
(0.088946641 -0.012691323 1.2089581e-20)
(0.10938551 -0.017436943 -9.701622e-21)
(0.1314575 -0.022009924 -1.4337126e-20)
(0.15507417 -0.026408678 -1.5738948e-21)
(0.18006772 -0.030659457 -2.2181567e-21)
(0.20685355 -0.034576574 4.6147084e-20)
(0.23766374 -0.037019913 -1.0470134e-20)
(-0.0046450991 0.0097808651 -7.5356701e-21)
(-0.0096772528 0.020747885 2.4516409e-20)
(-0.011064381 0.026160983 -1.049935e-20)
(-0.0090968315 0.027724451 -2.7469291e-20)
(-0.0039797161 0.026601699 -2.7548156e-20)
(0.0040961923 0.02364841 -1.4921574e-20)
(0.014954165 0.019496457 -6.9059625e-22)
(0.028436258 0.014604702 5.5499803e-21)
(0.044403178 0.0093034399 1.9615886e-20)
(0.062730537 0.0038284052 7.3530881e-21)
(0.083304367 -0.0016547691 -7.1862239e-21)
(0.10601904 -0.0070322566 -2.0102318e-21)
(0.13077365 -0.01222912 -3.8191725e-20)
(0.15746953 -0.017199779 -1.269365e-20)
(0.1860121 -0.021919765 1.8750614e-20)
(0.2163119 -0.026379753 -2.1021683e-20)
(0.24823237 -0.030602263 -8.9730618e-21)
(0.28151883 -0.034670653 3.0440479e-20)
(0.31660722 -0.03836487 5.0472091e-20)
(0.35665036 -0.039964155 3.3559682e-21)
(-0.0049617695 0.0093140011 1.6783309e-20)
(-0.0091662705 0.019097714 1.4467943e-20)
(-0.007859364 0.023563371 5.1145504e-20)
(-0.0018585347 0.024328947 2.3387989e-20)
(0.0082957333 0.022523785 1.825178e-22)
(0.022221957 0.019014384 -3.9388468e-20)
(0.039597468 0.014440932 -2.4313867e-20)
(0.06014794 0.009266352 1.0465821e-20)
(0.083639163 0.0038232169 1.4401591e-20)
(0.10986675 -0.0016513145 -1.3113717e-20)
(0.1386457 -0.006991029 -4.403873e-20)
(0.16980179 -0.012082871 2.9618509e-20)
(0.20316415 -0.016854187 2.0020559e-20)
(0.23855958 -0.021264028 -2.7551166e-20)
(0.27581244 -0.02529644 1.1650139e-20)
(0.31474827 -0.02895721 2.4197623e-20)
(0.35514564 -0.032303099 8.0723977e-21)
(0.39663407 -0.035506729 -1.1764215e-20)
(0.43957724 -0.0383927 -1.4190303e-20)
(0.48798534 -0.038634465 5.8727676e-21)
(-0.004730777 0.008123675 1.1093849e-20)
(-0.0070586004 0.015671179 -2.3352727e-20)
(-0.0020293623 0.018562035 8.6200569e-21)
(0.0090325297 0.018216225 3.3587977e-20)
(0.025256379 0.015651148 5.2124354e-20)
(0.046066365 0.011695598 2.0276516e-20)
(0.070984561 0.0069609439 -5.8639367e-21)
(0.099602 0.0018829391 -1.2286288e-20)
(0.13156901 -0.0032272143 -6.2057481e-21)
(0.16657575 -0.0081496778 3.4240845e-20)
(0.20433434 -0.012733345 -4.5104389e-21)
(0.24456496 -0.016879216 -1.6643305e-20)
(0.28698483 -0.020528719 -1.969358e-20)
(0.33130013 -0.023656449 -4.7443755e-20)
(0.37720476 -0.026265574 2.3238712e-20)
(0.42438789 -0.028387907 -1.4095989e-20)
(0.47249995 -0.03012767 2.5993409e-20)
(0.52103641 -0.031783244 2.1040831e-20)
(0.5702142 -0.033350737 -8.5570415e-20)
(0.62470943 -0.032058903 -1.0807055e-22)
(-0.0037710522 0.0063146405 2.1925061e-20)
(-0.0028657644 0.010735096 -2.6165538e-20)
(0.0071421122 0.011564136 -4.5013308e-20)
(0.024450248 0.0099249867 -2.725379e-20)
(0.047870877 0.0066523001 -2.0439876e-21)
(0.076628741 0.002490608 1.3050102e-20)
(0.11007678 -0.002015408 -2.8337719e-21)
(0.14765213 -0.0064879205 1.8118543e-20)
(0.18886104 -0.010663524 8.8685649e-21)
(0.23325205 -0.014362445 -1.1380176e-20)
(0.28039161 -0.017468977 8.8779142e-21)
(0.32984618 -0.019916838 -2.3903275e-20)
(0.38116897 -0.021678733 8.0504781e-21)
(0.43389103 -0.022759915 1.6756397e-20)
(0.48751956 -0.023194345 -2.6395127e-21)
(0.54154738 -0.023046939 1.6618976e-21)
(0.5954357 -0.022469497 -3.1957453e-22)
(0.64851809 -0.021870161 1.9590427e-20)
(0.70082267 -0.021445123 4.0434022e-21)
(0.75745179 -0.018499146 -5.7335255e-22)
(-0.0019110138 0.0040273483 2.369212e-20)
(0.0038694346 0.0046765188 5.7159979e-20)
(0.020315323 0.0031879608 -4.9244238e-20)
(0.045178307 0.0002944198 -9.9454184e-21)
(0.076965188 -0.0034241613 2.0256354e-20)
(0.11469628 -0.0073535988 2.1433725e-21)
(0.1575389 -0.011054973 -2.9815171e-20)
(0.2047484 -0.014244159 6.9848131e-21)
(0.2556496 -0.016737952 7.1097889e-21)
(0.30960486 -0.018426984 -2.6254085e-20)
(0.36598662 -0.019260129 1.2927327e-21)
(0.42415975 -0.019231901 -3.7174124e-20)
(0.48347121 -0.018372241 -3.6341025e-20)
(0.54324586 -0.016738318 6.5683501e-20)
(0.60278835 -0.014407348 5.5627503e-21)
(0.66138909 -0.011475949 -1.5188802e-20)
(0.71830811 -0.0081021003 1.9363972e-20)
(0.77269929 -0.0045929257 -9.1888166e-22)
(0.82408863 -0.00096811331 2.036458e-20)
(0.87621995 0.0043279982 -1.9554155e-20)
(-0.018836398 -0.0050997075 5.835208e-20)
(-0.010224629 -0.0056349312 1.5783676e-20)
(-0.00022116099 -0.0060688844 -3.5139579e-20)
(0.010823268 -0.0063341142 1.6790243e-20)
(0.022642518 -0.0065120517 0)
(0.035177946 -0.0066300948 0)
(0.048369733 -0.0066909783 -2.297496e-20)
(0.06213816 -0.0067025448 -1.650288e-20)
(0.076412815 -0.0066741794 1.9122604e-20)
(0.09113419 -0.0066126709 1.8174044e-20)
(0.10624731 -0.0065232111 1.052426e-21)
(0.12170037 -0.0064103635 -1.0317642e-20)
(0.13744508 -0.0062780867 8.3268848e-21)
(0.1534362 -0.0061297281 1.8233728e-20)
(0.16963099 -0.0059681509 -5.227421e-21)
(0.18598879 -0.0057958406 -1.0174941e-20)
(0.20247085 -0.0056149682 -4.3195901e-21)
(0.21904013 -0.0054274428 -4.425741e-21)
(0.23566123 -0.0052349564 7.3667215e-22)
(0.25230026 -0.0050390195 1.2286049e-21)
(0.26892489 -0.004840987 2.566634e-21)
(0.28550434 -0.0046420787 6.653952e-21)
(0.30200941 -0.0044433938 2.4894294e-22)
(0.31841258 -0.0042459218 -3.4514738e-21)
(0.334688 -0.0040505502 1.5558744e-22)
(0.35081159 -0.0038580705 -5.7709859e-22)
(0.36676111 -0.0036691828 1.2434381e-21)
(0.38251614 -0.0034844995 1.0522445e-21)
(0.39805817 -0.003304549 -1.2987973e-21)
(0.41337057 -0.0031297794 -1.221872e-22)
(0.42843861 -0.0029605628 3.5747471e-23)
(0.44324945 -0.0027971992 -3.5187692e-22)
(0.45779208 -0.0026399216 -4.0565691e-22)
(0.47205731 -0.0024889014 5.5414959e-23)
(0.48603775 -0.0023442537 -1.3809109e-22)
(0.49972768 -0.0022060442 -2.2343276e-22)
(0.5131231 -0.0020742948 2.557209e-22)
(0.52622165 -0.0019489913 2.9502207e-22)
(0.53902255 -0.001830092 -8.2726784e-24)
(0.5515269 -0.0017175314 -1.5517783e-22)
(0.56373667 -0.0016112485 3.0406699e-23)
(0.57565846 -0.0015111431 -4.0145349e-23)
(0.58729244 -0.0014172861 9.220718e-23)
(0.59866762 -0.0013293413 2.1976735e-23)
(0.60973838 -0.0012485923 -1.1395544e-22)
(0.62069674 -0.0011718296 -6.7624053e-24)
(0.63106504 -0.0011112841 -7.1986622e-26)
(0.64235403 -0.0010339904 -3.5626853e-24)
(0.65043224 -0.0010508532 2.9453354e-23)
(0.66701409 -0.00087561384 3.6052e-22)
(0.010445913 -0.015017625 -1.2746825e-20)
(0.018179751 -0.016641029 -6.3302373e-20)
(0.027779279 -0.017915432 -3.0541961e-20)
(0.038385221 -0.018672091 3.8476039e-20)
(0.049621075 -0.019183609 1.4662622e-20)
(0.061506731 -0.019529454 -1.8204942e-20)
(0.074012937 -0.019709888 4.672206e-21)
(0.087062802 -0.019746516 2.5447208e-20)
(0.10059329 -0.019667306 9.1992163e-23)
(0.11455418 -0.019491726 -7.6591314e-21)
(0.12889736 -0.019234386 -1.3021025e-20)
(0.14357622 -0.018908338 -8.5245385e-21)
(0.15854687 -0.018525 1.7772348e-20)
(0.1737678 -0.018094029 8.929557e-21)
(0.18919926 -0.017623708 -1.6522448e-20)
(0.20480306 -0.017121261 -6.0390632e-21)
(0.22054246 -0.016593026 3.2145066e-21)
(0.2363821 -0.016044601 8.371638e-21)
(0.25228791 -0.015480963 6.9832342e-21)
(0.26822715 -0.014906573 -6.972726e-21)
(0.28416838 -0.014325446 -3.1685539e-21)
(0.30008159 -0.013741207 1.3605397e-21)
(0.31593818 -0.013157132 3.8683398e-22)
(0.33171111 -0.012576176 1.2113983e-21)
(0.34737491 -0.012000994 1.8368521e-22)
(0.36290579 -0.011433961 -3.2661821e-22)
(0.37828169 -0.01087718 -7.2435131e-22)
(0.39348231 -0.010332493 9.7157172e-22)
(0.40848918 -0.0098014963 8.2483388e-22)
(0.42328564 -0.0092855446 -1.5147808e-22)
(0.43785687 -0.0087857669 5.5306498e-22)
(0.45218986 -0.0083030776 -2.3880997e-22)
(0.46627341 -0.0078381913 -3.7070307e-22)
(0.48009807 -0.0073916383 -6.0999626e-22)
(0.49365614 -0.0069637817 4.4172e-22)
(0.50694157 -0.0065548354 -1.5481864e-23)
(0.51994997 -0.006164884 1.6125251e-22)
(0.53267858 -0.0057939027 -4.4175617e-22)
(0.54512618 -0.0054417847 3.7190664e-22)
(0.55729343 -0.0051083517 6.7176477e-23)
(0.56918181 -0.0047934389 -1.0285461e-22)
(0.58079741 -0.0044967625 1.7614516e-22)
(0.59213998 -0.0042185516 2.334096e-22)
(0.60323779 -0.0039578164 1.6927642e-22)
(0.61404537 -0.0037184028 1.6768624e-22)
(0.62475189 -0.0034907549 -2.6101504e-23)
(0.63488608 -0.0033113238 8.4058948e-23)
(0.64593573 -0.00308199 7.6307278e-23)
(0.6538344 -0.0031324941 -1.9468845e-22)
(0.67009726 -0.0026125967 -3.8022154e-23)
(0.067614764 -0.024029171 9.4528362e-21)
(0.073589755 -0.026749076 3.2951017e-21)
(0.082265602 -0.028805598 -1.2162211e-20)
(0.091947926 -0.029968535 -1.2257929e-21)
(0.10198333 -0.030767897 1.49706e-20)
(0.11254647 -0.031330926 -1.4887133e-20)
(0.12367611 -0.031636106 -2.9842294e-20)
(0.13529698 -0.031713042 1.4493534e-20)
(0.14735713 -0.031607674 1.8181981e-20)
(0.15982362 -0.031350095 -1.1598526e-20)
(0.17266081 -0.03096186 1.019056e-21)
(0.18583105 -0.030462795 8.6860189e-21)
(0.1992981 -0.029870594 -1.5253555e-20)
(0.21302685 -0.029200283 2.9095248e-21)
(0.22698274 -0.028464805 7.519444e-21)
(0.24113174 -0.02767555 3.1592056e-23)
(0.25544052 -0.026842605 2.6556016e-22)
(0.26987646 -0.025974945 -7.4150959e-21)
(0.28440775 -0.025080614 3.8616952e-21)
(0.29900346 -0.02416687 8.4749178e-21)
(0.31363364 -0.023240286 -3.8351822e-21)
(0.32826947 -0.022306827 -2.213039e-21)
(0.3428833 -0.021371911 1.012443e-21)
(0.35744884 -0.020440443 -1.715537e-21)
(0.37194118 -0.019516852 1.3532273e-21)
(0.38633693 -0.018605107 7.1846031e-22)
(0.40061429 -0.017708738 1.5268509e-21)
(0.41475309 -0.016830849 -1.9526748e-21)
(0.42873484 -0.015974136 2.2235843e-21)
(0.44254276 -0.015140903 5.518891e-22)
(0.45616181 -0.014333078 4.0323556e-22)
(0.46957864 -0.013552235 3.213458e-22)
(0.48278164 -0.012799619 8.7326211e-22)
(0.49576086 -0.012076168 -1.37088e-21)
(0.50850798 -0.011382543 3.706622e-22)
(0.52101633 -0.010719158 1.0941973e-22)
(0.53328079 -0.010086212 -4.5174701e-23)
(0.54529784 -0.0094837214 8.6730185e-23)
(0.55706543 -0.0089115659 -3.718587e-22)
(0.56858338 -0.0083695055 1.8294173e-22)
(0.57985229 -0.0078573211 -3.4987851e-23)
(0.59087731 -0.0073745946 3.9006421e-22)
(0.60165737 -0.0069217553 -1.8545597e-22)
(0.61221934 -0.0064972149 4.7325923e-23)
(0.62251811 -0.0061073625 4.360751e-23)
(0.63273741 -0.0057365099 -7.3607409e-23)
(0.64241814 -0.0054446006 -1.208466e-22)
(0.65300412 -0.0050707082 3.88147e-22)
(0.66055441 -0.0051544795 1.7272657e-22)
(0.676199 -0.0043072776 -8.3042739e-22)
(0.15021541 -0.031460465 1.5010137e-21)
(0.15354702 -0.035257433 -1.1566616e-20)
(0.16061637 -0.038010961 6.6441983e-21)
(0.16880606 -0.039479141 -1.332475e-20)
(0.17698241 -0.040520735 -1.9758322e-21)
(0.18552364 -0.041302328 9.1599481e-21)
(0.19458439 -0.041757286 -9.7662272e-21)
(0.20408713 -0.041913761 1.5662761e-21)
(0.21398791 -0.041833384 1.2903809e-20)
(0.22427623 -0.04155439 3.4032042e-21)
(0.2349328 -0.041102101 -6.2097006e-21)
(0.2459305 -0.040500507 -2.8638141e-21)
(0.25724189 -0.039771809 -5.8409071e-21)
(0.26883945 -0.038935117 -6.4553213e-21)
(0.28069459 -0.038007038 3.2356899e-21)
(0.29277801 -0.037002367 8.462047e-22)
(0.30506016 -0.035934392 1.3679617e-21)
(0.31751143 -0.034815091 -3.385045e-21)
(0.33010243 -0.033655319 -4.2428955e-21)
(0.34280413 -0.032464968 2.3616562e-21)
(0.35558811 -0.031253071 3.225145e-21)
(0.36842671 -0.030027892 -1.5636272e-21)
(0.38129322 -0.02879698 1.5867314e-21)
(0.394162 -0.027567213 -3.9124339e-22)
(0.40700863 -0.026344827 -3.9196586e-21)
(0.41981001 -0.025135439 -3.0332897e-21)
(0.43254445 -0.023944066 -1.9026637e-22)
(0.44519178 -0.022775142 4.2858707e-22)
(0.45773332 -0.021632537 -2.2106115e-21)
(0.47015201 -0.020519577 -8.5498301e-22)
(0.48243237 -0.01943907 2.2837721e-22)
(0.49456053 -0.018393329 -1.2498816e-21)
(0.50652421 -0.017384211 6.2600282e-24)
(0.5183127 -0.016413145 -4.2421618e-22)
(0.52991687 -0.015481172 -4.7193903e-22)
(0.54132911 -0.01458899 -5.199716e-22)
(0.55254331 -0.013736995 -8.4135423e-22)
(0.56355488 -0.012925325 -5.4494783e-23)
(0.57436067 -0.012153928 -3.9160966e-24)
(0.58495932 -0.011422581 -5.1974139e-22)
(0.59535025 -0.010731088 -9.1605416e-23)
(0.60553732 -0.010078972 -3.3241041e-22)
(0.61551835 -0.0094669262 -4.376276e-22)
(0.62531835 -0.0088928521 3.784434e-22)
(0.63489269 -0.0083656354 1.4822166e-23)
(0.64441746 -0.0078638294 1.8239436e-22)
(0.65345103 -0.0074696104 -1.3249043e-22)
(0.66337409 -0.0069632411 -2.6694772e-22)
(0.67042642 -0.0070794778 -4.4670988e-23)
(0.68518427 -0.0059330551 4.6231406e-22)
(0.25468582 -0.036552801 -2.0900326e-20)
(0.25447037 -0.041393555 4.7585978e-20)
(0.2590735 -0.044745705 1.0348101e-20)
(0.2650843 -0.046442093 -1.5765328e-20)
(0.27070952 -0.047714367 -2.0227967e-21)
(0.27652014 -0.04874783 2.6232266e-21)
(0.2828357 -0.049413775 -1.6608225e-21)
(0.28957712 -0.049728158 -4.686145e-21)
(0.29669681 -0.049761492 -4.0159194e-21)
(0.30420572 -0.049557116 -1.2207648e-20)
(0.31210245 -0.049141752 1.7897772e-20)
(0.32036966 -0.048540869 6.521998e-21)
(0.32898729 -0.047779034 -1.6780538e-20)
(0.33793434 -0.04687809 1.0317577e-20)
(0.34718742 -0.045857374 8.3849925e-21)
(0.35672111 -0.044734388 -8.7923153e-22)
(0.36650883 -0.043525145 -3.1222215e-21)
(0.3765233 -0.042244328 -3.8197415e-21)
(0.38673685 -0.040905441 -1.3892625e-21)
(0.39712177 -0.039520937 -1.2304236e-21)
(0.40765059 -0.038102308 -3.0257706e-21)
(0.41829633 -0.036660159 0)
(0.42903271 -0.035204247 -1.3451965e-21)
(0.43983435 -0.033743517 3.9309594e-21)
(0.4506769 -0.032286126 5.4052847e-21)
(0.4615372 -0.030839456 -9.411269e-22)
(0.47239335 -0.029410133 -2.9274621e-21)
(0.48322481 -0.028004045 3.0258614e-21)
(0.49401246 -0.026626358 2.544683e-22)
(0.50473867 -0.025281546 3.4352715e-21)
(0.51538725 -0.023973414 -5.3459894e-22)
(0.52594356 -0.022705137 1.7173597e-21)
(0.53639442 -0.021479298 -7.9965355e-22)
(0.54672816 -0.020297933 2.9094921e-22)
(0.55693457 -0.019162577 -4.340484e-22)
(0.56700491 -0.018074321 5.623235e-22)
(0.57693186 -0.017033865 4.5710888e-22)
(0.58670958 -0.016041577 3.8256563e-22)
(0.59633358 -0.015097574 -9.5938857e-22)
(0.60580115 -0.014201752 6.8357606e-22)
(0.61511032 -0.013354033 -3.6958642e-22)
(0.62426344 -0.012553975 -1.1033691e-21)
(0.63325709 -0.011802612 1.4078913e-21)
(0.64211399 -0.011097448 -6.2009014e-23)
(0.65079032 -0.010449792 -1.5817197e-22)
(0.65945258 -0.0098329387 -7.8253348e-24)
(0.66768141 -0.0093495826 -1.2623687e-22)
(0.6767777 -0.0087265669 -4.6588199e-22)
(0.68320981 -0.0088740525 8.7881434e-22)
(0.69685618 -0.0074653626 -4.4318126e-23)
(0.37635149 -0.038368219 -1.749511e-20)
(0.37170998 -0.044270284 1.2832053e-20)
(0.37286712 -0.04816167 2.9754623e-21)
(0.37591068 -0.050098911 -7.6353784e-21)
(0.37830551 -0.051670034 1.2055991e-20)
(0.38072319 -0.053042438 7.7914167e-21)
(0.38367627 -0.054030107 -1.2647696e-20)
(0.38710086 -0.054633173 -6.0679806e-21)
(0.39092953 -0.054918076 1.2697349e-20)
(0.39518274 -0.054927208 -1.530499e-20)
(0.39987457 -0.054687591 -1.4063202e-20)
(0.40499541 -0.054224731 1.4129652e-20)
(0.41052898 -0.05356374 6.8193897e-21)
(0.41645756 -0.052728032 -4.2037796e-21)
(0.42276055 -0.051739101 -1.8545563e-21)
(0.42941446 -0.050616837 -4.058169e-21)
(0.43639393 -0.049379791 5.3047577e-21)
(0.44367243 -0.048045319 3.6682126e-21)
(0.45122275 -0.046629643 -3.2408311e-21)
(0.45901732 -0.045147912 3.137952e-21)
(0.46702864 -0.043614259 2.7666871e-21)
(0.47522951 -0.042041829 -3.211121e-21)
(0.48359332 -0.040442808 3.7056615e-22)
(0.49209423 -0.038828427 -3.2571687e-21)
(0.50070736 -0.037208979 7.2454525e-21)
(0.5094089 -0.035593824 6.1080855e-21)
(0.51817625 -0.033991402 8.0974082e-22)
(0.5269881 -0.032409249 -1.7683308e-21)
(0.53582447 -0.030854015 3.7022095e-21)
(0.5446668 -0.029331495 7.1885805e-21)
(0.55349791 -0.027846661 2.3049455e-21)
(0.5623021 -0.026403708 3.316521e-21)
(0.57106506 -0.025006098 1.9956402e-21)
(0.57977395 -0.023656615 7.4559004e-22)
(0.58841732 -0.022357429 -2.6374707e-22)
(0.59698512 -0.021110155 2.7203602e-21)
(0.6054687 -0.019915923 6.199338e-22)
(0.61386083 -0.018775454 2.9488356e-22)
(0.62215561 -0.017689152 5.6233562e-23)
(0.63034886 -0.016657141 9.8969949e-22)
(0.63843715 -0.015679568 4.7021124e-23)
(0.64642124 -0.014756131 4.4249528e-22)
(0.65429641 -0.013888285 -1.2622333e-22)
(0.66208292 -0.013073263 -2.7736606e-22)
(0.66973804 -0.012324691 -1.5219734e-22)
(0.67741724 -0.011611203 -4.2211638e-22)
(0.68472736 -0.011053939 1.6141798e-22)
(0.69287603 -0.010332762 -1.2725018e-22)
(0.69859913 -0.01050992 -5.0125386e-22)
(0.71096244 -0.0088823149 2.4588336e-22)
(0.50927453 -0.035974338 3.6471427e-21)
(0.49953062 -0.042960721 -1.8958309e-20)
(0.4962758 -0.047383521 -2.3083864e-21)
(0.49555616 -0.049736828 5.4869542e-21)
(0.49416978 -0.051818095 3.0528132e-21)
(0.49269599 -0.053705463 -4.9883738e-23)
(0.49181256 -0.055187703 6.1896748e-21)
(0.49151479 -0.056265455 7.6251079e-21)
(0.49171195 -0.05699059 9.858047e-21)
(0.49241102 -0.057395633 -1.1250051e-20)
(0.49363136 -0.057506362 -2.1579443e-20)
(0.49536811 -0.057348479 -3.9353541e-21)
(0.49760503 -0.056947194 1.593816e-20)
(0.50032339 -0.056327073 1.2808972e-20)
(0.50350205 -0.055511798 -5.9066973e-21)
(0.50711693 -0.054523913 1.3816999e-21)
(0.51114183 -0.053384852 -3.6600936e-21)
(0.51554921 -0.052115008 2.2443892e-21)
(0.52031077 -0.050733718 -2.9123052e-22)
(0.52539786 -0.049259237 -1.8654132e-21)
(0.5307818 -0.047708735 7.8266099e-21)
(0.53643422 -0.046098287 -2.9309223e-22)
(0.54232732 -0.044442869 4.1818586e-22)
(0.54843405 -0.042756346 -6.5646298e-22)
(0.5547283 -0.04105147 -4.3029514e-21)
(0.56118505 -0.039339879 4.2085301e-21)
(0.56778044 -0.037632104 1.9031248e-21)
(0.57449192 -0.035937585 -3.3082055e-21)
(0.58129824 -0.034264694 -4.1116559e-21)