/*--------------------------------*- C++ -*----------------------------------*\
  =========                 |
  \\      /  F ield         | OpenFOAM: The Open Source CFD Toolbox
   \\    /   O peration     | Website:  https://openfoam.org
    \\  /    A nd           | Version:  6
     \\/     M anipulation  |
\*---------------------------------------------------------------------------*/
FoamFile
{
    version     2.0;
    format      ascii;
    class       volVectorField;
    location    "178";
    object      UMean;
}
// * * * * * * * * * * * * * * * * * * * * * * * * * * * * * * * * * * * * * //

dimensions      [0 1 -1 0 0 0 0];

internalField   nonuniform List<vector> 
9200
(
(0.0018141141 0.0008272695 -6.1246349e-20)
(0.016251808 -0.0039260486 4.8739602e-20)
(0.042853287 -0.0088262376 -4.011935e-20)
(0.078895411 -0.013667762 -6.367818e-20)
(0.12247683 -0.018238482 1.9751517e-20)
(0.17233013 -0.022105587 3.4613835e-20)
(0.22734843 -0.024983639 -1.2941966e-20)
(0.2865091 -0.026732502 9.7926906e-21)
(0.34885657 -0.027298717 1.8077471e-20)
(0.41347111 -0.026692071 1.5978684e-21)
(0.47944573 -0.024974331 -2.3156268e-20)
(0.54587795 -0.0222482 2.224423e-20)
(0.61187354 -0.018646311 -4.3397166e-20)
(0.67655983 -0.014320063 -2.2826913e-20)
(0.73910718 -0.0094278074 6.3789209e-21)
(0.79875546 -0.0041251498 -2.7227786e-20)
(0.85485889 0.0014579396 2.7367132e-20)
(0.90700725 0.0073627591 2.4305043e-20)
(0.95484499 0.01371746 -2.5352813e-22)
(0.99574415 0.017212135 -1.5798393e-21)
(0.0062537491 -0.0020133432 -1.7643827e-20)
(0.030143098 -0.011007355 4.1849084e-20)
(0.067121751 -0.017937381 2.4306943e-20)
(0.11405675 -0.023226554 -1.2145795e-19)
(0.16874181 -0.027071725 -1.3283846e-20)
(0.22964957 -0.029275591 7.7456717e-20)
(0.29540485 -0.029756541 -3.7483781e-20)
(0.36470534 -0.028563609 -8.9422948e-21)
(0.43631117 -0.02581585 3.659801e-20)
(0.50902241 -0.021683145 -4.6292618e-20)
(0.58166884 -0.01637838 -3.2678153e-20)
(0.65311787 -0.010146954 7.7601724e-20)
(0.72229547 -0.0032548881 4.1211255e-20)
(0.7882154 0.0040229037 -7.3300304e-20)
(0.85001238 0.011412596 1.576884e-20)
(0.90697367 0.018646123 -3.9616088e-20)
(0.95857779 0.025474917 -1.5033632e-20)
(1.0045907 0.031742237 7.6458492e-20)
(1.0449345 0.03704511 3.2841403e-20)
(1.0778924 0.038303365 -8.5529036e-20)
(0.012104459 -0.0047549037 3.7631131e-20)
(0.047766748 -0.017517544 2.2937354e-21)
(0.096893716 -0.025722667 2.2767892e-20)
(0.15599739 -0.03054361 1.0250134e-21)
(0.22257743 -0.032671186 -4.21146e-20)
(0.29482255 -0.032207944 1.9757767e-20)
(0.37105632 -0.02933652 1.3876278e-20)
(0.44966679 -0.024352755 -5.323759e-20)
(0.52911305 -0.017600875 6.0891793e-20)
(0.6079223 -0.009455988 1.5525646e-20)
(0.68470123 -0.00031644114 -5.833585e-20)
(0.7581652 0.0094098614 -1.9732845e-20)
(0.82717625 0.019321964 9.3789323e-21)
(0.89078225 0.029042002 2.5164229e-20)
(0.94825029 0.038228904 -1.2161217e-20)
(0.99908766 0.046587027 2.983509e-20)
(1.0430523 0.053879767 -2.170779e-20)
(1.0801798 0.059976234 -7.456312e-20)
(1.1106594 0.06461622 -2.4466228e-20)
(1.1336967 0.065945743 5.1046622e-20)
(0.019458955 -0.0071471755 2.4926464e-20)
(0.069230831 -0.022759062 5.2613066e-20)
(0.13214008 -0.03114154 2.0624669e-20)
(0.20442039 -0.034341063 1.3856387e-20)
(0.28329702 -0.033628752 1.8311896e-20)
(0.36665998 -0.029476101 -5.0197021e-20)
(0.4525178 -0.02239359 -2.712178e-20)
(0.53895241 -0.0129802 0)
(0.62415459 -0.0018501466 1.5739299e-20)
(0.70644995 0.010387079 -6.8235646e-21)
(0.78433634 0.023137974 -1.0436267e-19)
(0.85653173 0.035844523 -1.6615317e-20)
(0.92202023 0.048005924 6.9616685e-20)
(0.98008664 0.059197491 4.7569968e-22)
(1.0303328 0.069084197 -1.6727662e-21)
(1.0726714 0.077426863 2.3294056e-20)
(1.1073004 0.084088152 -5.4186092e-21)
(1.1346752 0.089060529 -6.4657434e-20)
(1.1553903 0.092325343 -4.8551793e-20)
(1.1694563 0.092938286 7.1844969e-20)
(0.028339612 -0.0089072062 -3.8259598e-21)
(0.094421755 -0.025980753 -4.7566606e-21)
(0.17245036 -0.033121913 5.8305402e-20)
(0.25849031 -0.033360773 1.9549813e-20)
(0.34953419 -0.028630173 -3.3804744e-20)
(0.44318536 -0.019839385 1.2455663e-20)
(0.53716429 -0.0078854128 2.7881915e-21)
(0.62930643 0.0062864027 3.5893223e-20)
(0.71763558 0.021769631 6.0175785e-21)
(0.80042173 0.037723176 -1.4337771e-20)
(0.87623888 0.053387982 6.4503784e-20)
(0.94401793 0.068111016 -6.1421928e-20)
(1.003081 0.081367455 -1.4024993e-19)
(1.0531493 0.092774647 -5.9071882e-21)
(1.0943216 0.10209573 8.7757202e-20)
(1.1270254 0.10923237 0)
(1.1519487 0.11421317 1.0809255e-20)
(1.1699691 0.1171962 -1.6131957e-20)
(1.1820383 0.11836681 -9.1932494e-21)
(1.1887358 0.11733458 2.1691705e-20)
(0.038678551 -0.0097299878 -5.0827533e-21)
(0.12297437 -0.026421148 4.4635012e-21)
(0.21702501 -0.030645328 -9.0210434e-21)
(0.31687505 -0.026496463 2.9130889e-20)
(0.41936212 -0.016633245 -3.0867148e-20)
(0.52186048 -0.0024593343 -1.7761099e-20)
(0.62188877 0.014703007 3.8318292e-20)
(0.71716524 0.033549487 4.7694819e-21)
(0.80571989 0.052899466 -2.64419e-20)
(0.88597597 0.071729721 7.3890729e-20)
(0.95681083 0.089193264 2.4126906e-22)
(1.0175901 0.10464012 -8.5168843e-20)
(1.0681653 0.11762898 0)
(1.1088329 0.12792384 4.1517656e-20)
(1.1402607 0.13547587 5.737798e-21)
(1.1633923 0.14039309 -8.1041826e-20)
(1.1793421 0.14290591 -2.0489379e-20)
(1.1892984 0.14334478 -1.2931436e-20)
(1.1944185 0.14205204 -1.5331704e-20)
(1.1955589 0.13896713 4.1989822e-20)
(0.050304794 -0.0093094899 -1.7312028e-20)
(0.15425657 -0.023367629 -3.2708395e-21)
(0.26468583 -0.022836878 3.0729214e-20)
(0.3778066 -0.012904625 3.7688223e-20)
(0.49042562 0.0030150527 -2.0587175e-20)
(0.59980388 0.022997195 -7.247008e-20)
(0.70341179 0.045294321 -2.9741357e-20)
(0.79904694 0.068278925 8.2946284e-20)
(0.88497383 0.090567496 9.3871555e-21)
(0.96000871 0.11105615 -2.6007979e-20)
(1.023557 0.12893106 1.413517e-20)
(1.0756014 0.14367187 -4.578412e-21)
(1.1166412 0.15503781 0)
(1.1475905 0.16303391 2.8474016e-20)
(1.1696533 0.16786224 -8.2795975e-20)
(1.1841911 0.16986498 -3.2831943e-20)
(1.1926012 0.16946939 8.4238608e-20)
(1.1962192 0.16714854 -4.7541823e-21)
(1.1962402 0.16334354 3.6084631e-21)
(1.1935707 0.15817809 2.8297336e-20)
(0.062938446 -0.0073665261 -3.2585205e-20)
(0.18737572 -0.016228246 -8.3665171e-20)
(0.31392158 -0.0090625552 1.5981262e-21)
(0.43918497 0.0078925944 7.2807873e-20)
(0.56011501 0.030492159 6.4781689e-20)
(0.67403644 0.056311249 -7.375881e-20)
(0.77858633 0.083232437 2.7369178e-22)
(0.87188588 0.10939985 9.0030285e-20)
(0.95268428 0.13335371 5.1127008e-20)
(1.0204179 0.15405446 -5.6932875e-20)
(1.0751958 0.17086781 -9.6677018e-20)
(1.1177202 0.18353322 -3.3016614e-21)
(1.1491582 0.19211005 4.3952366e-20)
(1.1709834 0.19690493 -6.8077252e-21)
(1.1848155 0.19839081 -1.3211859e-20)
(1.1922747 0.19712833 2.0158408e-20)
(1.1948698 0.19369987 4.5437654e-20)
(1.1939242 0.1886659 -4.5196201e-20)
(1.1905371 0.18250435 -1.0576251e-19)
(1.1855234 0.17542931 2.5626867e-20)
(0.076161224 -0.0036794011 -3.582917e-20)
(0.22114042 -0.0046073392 -1.756862e-19)
(0.36286402 0.010988813 8.5572084e-20)
(0.49858278 0.03594746 9.6110799e-20)
(0.6256081 0.065483009 5.9843277e-20)
(0.74155983 0.096753245 8.9882906e-21)
(0.84449707 0.12738984 -1.1041472e-19)
(0.9331218 0.1554625 0)
(1.0068955 0.17960684 -7.2120365e-20)
(1.0660437 0.1990167 -1.5943394e-20)
(1.1114682 0.21338383 5.6998129e-20)
(1.1445935 0.22281551 1.1375655e-20)
(1.1671776 0.22773241 -4.730504e-20)
(1.1811177 0.22875725 -5.073636e-20)
(1.1882805 0.22660942 2.5269285e-20)
(1.1903727 0.22201697 4.6520828e-20)
(1.1888605 0.21565362 -5.7531899e-20)
(1.184937 0.20810388 -1.1089451e-19)
(1.1795271 0.19982846 -3.0696046e-21)
(1.1732889 0.19107613 2.7803412e-20)
(0.089399927 0.0019011636 -3.9925697e-21)
(0.25406537 0.011681051 8.9899745e-20)
(0.40932618 0.037310757 -1.448975e-20)
(0.5533328 0.07091244 -8.8071783e-20)
(0.68400858 0.10722747 4.6868635e-20)
(0.79952676 0.1431531 5.0294124e-20)
(0.89862589 0.17625827 5.768388e-21)
(0.98081396 0.20474513 -1.033707e-19)
(1.0464272 0.22754427 -2.6065419e-21)
(1.0965588 0.24425195 5.2527733e-20)
(1.1328921 0.25500702 6.2063824e-21)
(1.1574829 0.2603496 -2.0525395e-20)
(1.172532 0.26107263 -7.8338407e-20)
(1.1801851 0.25808262 -6.376704e-21)
(1.1823831 0.25228541 4.4871879e-20)
(1.180771 0.2445052 3.810176e-20)
(1.1766646 0.23543839 2.0231006e-20)
(1.1710621 0.22563694 -5.488186e-20)
(1.1646886 0.21550623 1.2890685e-20)
(1.1580321 0.20530119 8.4696608e-20)
(-0.0013315077 0.0014571941 -8.1478816e-22)
(-0.004765194 0.003192718 1.8555623e-21)
(-0.010800049 0.0040939463 1.9293115e-21)
(-0.017656297 0.0044357251 -9.5306838e-22)
(-0.024411123 0.0043908123 -2.4509987e-21)
(-0.030636381 0.0040763665 2.5822471e-21)
(-0.036058569 0.0035777249 -8.532442e-21)
(-0.040503178 0.0029564874 -7.3580514e-21)
(-0.043876248 0.0022564107 1.3177656e-20)
(-0.046137946 0.0015083194 -1.1305133e-20)
(-0.047282308 0.00073367716 -2.0395254e-22)
(-0.04732441 -5.282476e-05 4.2105151e-21)
(-0.046291869 -0.0008413114 -6.8306519e-22)
(-0.044219042 -0.0016251768 2.553055e-20)
(-0.041143405 -0.0023996925 2.6932799e-22)
(-0.037105051 -0.0031605286 -4.5297794e-20)
(-0.032149118 -0.0039031248 8.4308071e-21)
(-0.026317524 -0.0046254324 2.6114358e-20)
(-0.019621167 -0.0053259817 -4.7832463e-20)
(-0.012123407 -0.0059554434 -3.0135629e-20)
(-0.0016902345 0.0042410554 -5.733442e-21)
(-0.0053934302 0.0092690128 9.5896484e-21)
(-0.011176984 0.0118641 -1.0548021e-20)
(-0.017431433 0.012825094 5.8994165e-21)
(-0.023334095 0.012656196 6.9696558e-21)
(-0.02850852 0.011701171 9.430319e-22)
(-0.032717303 0.010210538 -2.8158422e-20)
(-0.03581211 0.0083650633 -2.3547902e-21)
(-0.03771665 0.006293141 2.3563285e-20)
(-0.038402564 0.0040852013 -5.8238586e-21)
(-0.037871055 0.0018041763 -2.4873295e-20)
(-0.036141324 -0.000506903 5.5363715e-21)
(-0.033242943 -0.0028191853 2.5149775e-20)
(-0.029210535 -0.0051134596 1.1490956e-20)
(-0.024079996 -0.007376064 2.4416355e-20)
(-0.017888981 -0.0095947274 -2.1801655e-20)
(-0.01068679 -0.011756666 -2.3694009e-20)
(-0.0025260961 -0.013855324 2.3402419e-20)
(0.0066549494 -0.015876009 2.9022268e-20)
(0.017048475 -0.017649519 1.6843862e-20)
(-0.0023373329 0.0066372021 -4.6579203e-21)
(-0.006482501 0.014435332 -4.7259333e-21)
(-0.011706744 0.018418676 1.7978977e-23)
(-0.01672944 0.01982924 -2.9876979e-22)
(-0.020919899 0.019457178 7.6790039e-21)
(-0.024001306 0.017847694 1.2062891e-20)
(-0.025806336 0.015398977 -4.5073493e-21)
(-0.026237559 0.012398501 -2.1751407e-20)
(-0.025253283 0.0090507626 7.5448787e-21)
(-0.022848009 0.0055000072 1.470254e-20)
(-0.019037754 0.0018467155 6.7997928e-21)
(-0.013850991 -0.0018404126 2.0165923e-20)
(-0.0073227003 -0.0055154952 1.9283819e-21)
(0.00050993594 -0.0091484179 -3.7249994e-20)
(0.0096113004 -0.012718147 1.6049574e-21)
(0.019945794 -0.016206196 -2.3721678e-20)
(0.031454857 -0.019595252 -2.7130743e-20)
(0.044061525 -0.022876658 5.0278214e-20)
(0.057948653 -0.025997024 2.7848422e-20)
(0.073806647 -0.028589808 5.3977409e-22)
(-0.0031489336 0.008432754 -5.813262e-21)
(-0.0077476681 0.01818698 -1.1657895e-20)
(-0.012030066 0.023080546 4.502374e-21)
(-0.015165372 0.024676826 4.7663198e-21)
(-0.016787792 0.023981868 2.1330045e-21)
(-0.016760153 0.021703023 8.8894891e-21)
(-0.015014784 0.018358581 1.0975645e-20)
(-0.011527678 0.014322992 -1.6505561e-21)
(-0.006308241 0.0098632485 -1.3114692e-20)
(0.00061385459 0.0051681534 -3.2892284e-20)
(0.0091982271 0.00036944626 1.7916002e-22)
(0.019398837 -0.0044427278 4.5284862e-20)
(0.03116828 -0.0092086039 -2.0024059e-20)
(0.044459338 -0.013889347 -1.3535017e-20)
(0.059229055 -0.018458983 2.5850029e-22)
(0.075437047 -0.022896766 3.5427031e-20)
(0.093009351 -0.027188236 -1.6730599e-20)
(0.11182645 -0.031332437 -5.764211e-20)
(0.13219734 -0.035212854 4.8964015e-20)
(0.15552135 -0.038145612 3.5545637e-20)
(-0.0039595035 0.0094830881 -4.2357082e-22)
(-0.0088000471 0.020168574 -1.3406874e-20)
(-0.01164542 0.025363202 -3.9072429e-20)
(-0.012190196 0.026808148 -7.2211206e-21)
(-0.010382675 0.02564064 -3.3239685e-21)
(-0.0062550909 0.022681452 7.3668337e-21)
(0.00013681145 0.018534285 -5.5862466e-21)
(0.0087239901 0.013635317 -1.0165667e-20)
(0.019429929 0.0082962417 2.4606406e-20)
(0.032175911 0.0027379102 5.5089828e-21)
(0.046884999 -0.0028850915 -2.8532549e-20)
(0.063481869 -0.0084668188 1.2065091e-20)
(0.08189319 -0.013937059 0)
(0.10204811 -0.019251429 1.3232734e-20)
(0.12388125 -0.024382554 -1.0578431e-20)
(0.14733199 -0.029312556 -1.5756184e-20)
(0.17229758 -0.034040041 -9.3198099e-22)
(0.19859382 -0.038592531 -2.6789891e-21)
(0.22661488 -0.042788729 4.8564729e-20)
(0.25861498 -0.045487547 -1.2158422e-20)
(-0.0045801676 0.0097211984 -7.8497286e-21)
(-0.0091811064 0.020199967 2.692492e-20)
(-0.0099421976 0.025011314 -1.2083442e-20)
(-0.007114756 0.025928452 -3.043439e-20)
(-0.00098664182 0.024130455 -2.9754173e-20)
(0.0082212494 0.020498638 -1.6666008e-20)
(0.020312128 0.015683037 -9.3821903e-22)
(0.035107186 0.010152108 6.2348215e-21)
(0.052447595 0.004241354 2.1674121e-20)
(0.072190786 -0.001810592 8.1182946e-21)
(0.094205238 -0.007836579 -7.8302782e-21)
(0.11836777 -0.013722046 -1.9481652e-21)
(0.14455965 -0.019391638 -4.1821679e-20)
(0.17266398 -0.024799408 -1.3832661e-20)
(0.20256729 -0.029920507 2.0842386e-20)
(0.23416085 -0.034745282 -2.3096854e-20)
(0.26728993 -0.039295931 -9.7096539e-21)
(0.30168095 -0.043656987 3.2162862e-20)
(0.33773927 -0.047618067 5.3377761e-20)
(0.37862152 -0.049471156 3.6769764e-21)
(-0.0048148855 0.0091540051 1.7414214e-20)
(-0.0083959503 0.01827816 1.5066376e-20)
(-0.0062367294 0.022015485 5.5106851e-20)
(0.00085798368 0.022037297 2.5785168e-20)
(0.012255217 0.019478108 2.0392616e-22)
(0.02753532 0.015226354 -4.3659264e-20)
(0.046348144 0.0099379172 -2.6647398e-20)
(0.068392097 0.0040833861 1.1503837e-20)
(0.093407571 -0.0020008679 1.5794047e-20)
(0.12116657 -0.008075759 -1.4177066e-20)
(0.15146118 -0.013974336 -4.83066e-20)
(0.18409441 -0.019583456 3.2445503e-20)
(0.21887258 -0.024830605 2.1577275e-20)
(0.25559962 -0.029674923 -2.993808e-20)
(0.2940769 -0.034100404 1.2769537e-20)
(0.33410718 -0.038112585 2.6078831e-20)
(0.37544855 -0.04176727 8.831427e-21)
(0.41771214 -0.045236809 -1.3105392e-20)
(0.46122649 -0.048359682 -1.4593077e-20)
(0.50997598 -0.048843759 7.7219236e-21)
(-0.0044714794 0.0078499333 1.1750013e-20)
(-0.0059405526 0.014559396 -2.564105e-20)
(0.00019184215 0.01660078 8.4648065e-21)
(0.012592502 0.015427373 3.6497695e-20)
(0.030291176 0.01204921 5.5992355e-20)
(0.052666342 0.0073114326 2.2010056e-20)
(0.079204886 0.0018369569 -6.3419908e-21)
(0.10946376 -0.0039339399 -1.3347004e-20)
(0.14306164 -0.0096885511 -6.819124e-21)
(0.17965906 -0.015206906 3.7311401e-20)
(0.21893953 -0.020338658 -5.1228935e-21)
(0.26059529 -0.024986055 -1.8256521e-20)
(0.30431638 -0.02909191 -2.1225998e-20)
(0.34978277 -0.032632076 -5.1487375e-20)
(0.39666349 -0.035610699 2.5006476e-20)
(0.44462467 -0.038060034 -1.5171409e-20)
(0.49329789 -0.040082919 2.8143907e-20)
(0.54216559 -0.04197441 2.2739263e-20)
(0.59141394 -0.043743739 -8.9860861e-20)
(0.64566168 -0.042676942 3.6488918e-22)
(-0.0033687614 0.0059245207 2.291193e-20)
(-0.0013277583 0.0093357057 -2.8152942e-20)
(0.010055047 0.0092083145 -4.7702835e-20)
(0.028951845 0.0066766531 -2.9171317e-20)
(0.054070922 0.0025546679 -2.2022263e-21)
(0.084584286 -0.0024038942 1.4175087e-20)
(0.11980233 -0.0076481862 -3.0753302e-21)
(0.1591213 -0.012800099 1.9542919e-20)
(0.20200947 -0.017597996 9.5504525e-21)
(0.24797991 -0.021864649 -1.2307532e-20)
(0.29656549 -0.025487436 9.7900644e-21)
(0.34730094 -0.028403448 -2.5908866e-20)
(0.39971022 -0.030588773 9.0531904e-21)
(0.45329831 -0.032051823 1.8171221e-20)
(0.50755045 -0.032829303 -3.0650036e-21)
(0.56194236 -0.032988013 1.9400969e-21)
(0.61592522 -0.03267875 -6.1544311e-22)
(0.66883202 -0.032303198 2.1290882e-20)
(0.7206751 -0.03206374 3.9807758e-21)
(0.77647258 -0.029328751 -2.378041e-21)
(-0.0013372411 0.0035288488 2.5023246e-20)
(0.0058929501 0.0030199074 6.1023783e-20)
(0.024001053 0.00049233089 -5.1862406e-20)
(0.050700682 -0.0033332644 -1.0602136e-20)
(0.084392702 -0.0079111086 2.1688235e-20)
(0.12403861 -0.012625953 2.2886289e-21)
(0.16875635 -0.017039246 -3.1889174e-20)
(0.21775413 -0.020871803 7.502895e-21)
(0.27031323 -0.023946379 7.6200495e-21)
(0.32575608 -0.026159663 -2.8270043e-20)
(0.38341876 -0.027466648 1.3884863e-21)
(0.44263392 -0.027867887 -4.0211116e-20)
(0.50272166 -0.027399058 -3.9337766e-20)
(0.56298667 -0.026122604 7.1127669e-20)
(0.62272129 -0.024120391 6.0178306e-21)
(0.68121278 -0.021492698 -1.6386257e-20)
(0.7377288 -0.01839856 2.0823305e-20)
(0.79144455 -0.015141403 -9.7484405e-22)
(0.84190559 -0.011746275 2.106595e-20)
(0.89279123 -0.0066995526 -2.1660741e-20)
(-0.0032056964 -0.0062410046 6.3315753e-20)
(0.0072524534 -0.0067581788 1.6719529e-20)
(0.0191409 -0.0071706571 -3.726694e-20)
(0.032102218 -0.0074071443 1.8013953e-20)
(0.045855775 -0.007551908 0)
(0.06033359 -0.0076344611 0)
(0.075470653 -0.0076578266 -2.3997472e-20)
(0.091181145 -0.0076300738 -1.7082525e-20)
(0.10738797 -0.0075611309 1.9932624e-20)
(0.12402563 -0.0074582833 1.8770966e-20)
(0.14103383 -0.0073270925 1.0377691e-21)
(0.1583558 -0.0071724529 -1.0437967e-20)
(0.17593864 -0.0069986379 8.6214285e-21)
(0.19373299 -0.0068092754 1.8262275e-20)
(0.21169244 -0.0066074713 -5.4423664e-21)
(0.22977314 -0.0063959213 -1.0060917e-20)
(0.24793358 -0.0061769768 -4.2424769e-21)
(0.26613445 -0.0059526976 -4.240332e-21)
(0.28433852 -0.0057248984 6.8654309e-22)
(0.30251053 -0.005495186 1.2080608e-21)
(0.3206172 -0.0052649875 2.581737e-21)
(0.33862719 -0.0050355718 6.4425044e-21)
(0.35651117 -0.0048080663 1.1813171e-22)
(0.37424182 -0.0045834699 -3.3228666e-21)
(0.39179385 -0.0043626619 1.2302313e-22)
(0.40914405 -0.0041464109 -5.4955791e-22)
(0.4262713 -0.0039353801 1.1775498e-21)
(0.44315658 -0.0037301341 9.5002633e-22)
(0.45978295 -0.0035311439 -1.2893279e-21)
(0.47613556 -0.0033387927 -9.4899572e-23)
(0.49220159 -0.0031533815 -6.162353e-23)
(0.5079702 -0.0029751354 -3.2373464e-22)
(0.5234325 -0.0028042096 -4.112781e-22)
(0.53858146 -0.0026406962 9.9051949e-23)
(0.55341183 -0.0024846312 -1.2466658e-22)
(0.56792011 -0.0023360017 -1.9072196e-22)
(0.58210444 -0.0021947535 2.1661917e-22)
(0.59596461 -0.0020607982 2.4406137e-22)
(0.60950188 -0.0019340236 -3.8609054e-23)
(0.62271942 -0.0018142978 -1.6547101e-22)
(0.63562106 -0.0017014981 1.2379127e-23)
(0.64821552 -0.0015954672 -2.1137354e-23)
(0.66050415 -0.0014962281 7.6608631e-23)
(0.67251977 -0.0014034012 -2.5566515e-23)
(0.68421272 -0.0013182374 -1.3911227e-22)
(0.69579404 -0.0012375532 9.0782501e-24)
(0.70674007 -0.0011733674 7.8425053e-24)
(0.71869909 -0.0010936945 -5.7072524e-24)
(0.72717233 -0.0011057404 2.4993976e-23)
(0.74482935 -0.00093638954 3.7450824e-22)
(0.027182778 -0.018370149 -1.4260004e-20)
(0.036648255 -0.019939953 -6.7719401e-20)
(0.048025438 -0.021152223 -3.3059104e-20)
(0.060445925 -0.021825996 4.1050131e-20)
(0.073512148 -0.022241596 1.5567888e-20)
(0.08723686 -0.022484669 -1.9517945e-20)
(0.10158774 -0.02255629 5.3043666e-21)
(0.11648204 -0.022478682 2.6406014e-20)
(0.1318501 -0.022281395 -2.4187863e-22)
(0.1476361 -0.021985356 -8.0393233e-21)
(0.16378697 -0.021606265 -1.2881718e-20)
(0.18025133 -0.021158147 -8.9455307e-21)
(0.19698087 -0.02065335 1.7958311e-20)
(0.21393006 -0.020102363 9.7332052e-21)
(0.23105559 -0.019514192 -1.6156025e-20)
(0.24831612 -0.018896687 -6.0004018e-21)
(0.26567218 -0.018256727 3.0824223e-21)
(0.28308612 -0.017600361 8.0769362e-21)
(0.30052201 -0.016932938 6.9184273e-21)
(0.31794564 -0.016259212 -7.0880432e-21)
(0.33532457 -0.01558342 -3.4181845e-21)
(0.35262811 -0.014909341 1.6094373e-21)
(0.36982742 -0.014240341 7.1658057e-22)
(0.38689552 -0.013579411 1.2501004e-21)
(0.40380736 -0.01292919 2.4906947e-22)
(0.42053986 -0.01229199 -3.8228319e-22)
(0.43707192 -0.011669812 -7.5231571e-22)
(0.45338447 -0.011064364 1.0887031e-21)
(0.46946046 -0.010477075 8.7812833e-22)
(0.48528481 -0.0099091136 -2.9609455e-22)
(0.50084444 -0.0093614031 6.0409243e-22)
(0.5161282 -0.0088346398 -2.1996142e-22)
(0.53112681 -0.0083293115 -4.2053329e-22)
(0.5458328 -0.0078457174 -6.2329626e-22)
(0.56024049 -0.0073839889 3.9927777e-22)
(0.57434585 -0.0069441103 -1.316632e-22)
(0.5881465 -0.0065259424 2.3345201e-22)
(0.60164166 -0.0061292434 -4.7097342e-22)
(0.61483204 -0.0057536997 4.6372611e-22)
(0.6277202 -0.0053989372 5.8828907e-23)
(0.64030939 -0.0050646106 -4.8353367e-23)
(0.65260766 -0.0047502677 2.2276706e-22)
(0.66461584 -0.0044559979 2.9975228e-22)
(0.67636588 -0.0041806814 2.2907185e-22)
(0.68780819 -0.0039280768 2.4751856e-22)
(0.69915088 -0.0036886833 -1.5605738e-23)
(0.70987634 -0.0034983903 1.2694655e-22)
(0.72161068 -0.0032618092 1.1116891e-22)
(0.72991723 -0.0032982067 -2.0645785e-22)
(0.74727534 -0.002795209 -2.6932645e-24)
(0.086161951 -0.029403216 1.0479912e-20)
(0.093669166 -0.032035895 3.9942685e-21)
(0.10392828 -0.033994555 -1.4180427e-20)
(0.11523965 -0.035029558 -1.7430133e-21)
(0.12691892 -0.035680347 1.6335905e-20)
(0.13913572 -0.036083346 -1.575533e-20)
(0.1519296 -0.036218476 -3.1809265e-20)
(0.16522004 -0.036116282 1.5560188e-20)
(0.17894857 -0.035825139 1.9298744e-20)
(0.19307727 -0.035377476 -1.2224331e-20)
(0.20756612 -0.034796618 1.0506019e-21)
(0.22237309 -0.034103972 8.3538187e-21)
(0.23745775 -0.033318744 -1.5875172e-20)
(0.25278121 -0.032457322 3.9853671e-21)
(0.26830547 -0.03153384 7.8656531e-21)
(0.28399344 -0.030560725 -6.4915879e-22)
(0.29980908 -0.029548962 -1.5391275e-22)
(0.31571745 -0.028508286 -7.6873549e-21)
(0.33168478 -0.027447372 4.5616712e-21)
(0.34767859 -0.026373978 8.7038819e-21)
(0.36366775 -0.025295064 -3.9097815e-21)
(0.37962259 -0.02421687 -2.1612768e-21)
(0.39551501 -0.023144987 8.5441484e-22)
(0.41131853 -0.0220844 -1.7882893e-21)
(0.42700844 -0.021039531 1.2993125e-21)
(0.44256177 -0.020014269 6.8688641e-22)
(0.45795741 -0.019011996 1.8630054e-21)
(0.47317613 -0.018035614 -2.2234412e-21)
(0.48820054 -0.017087565 2.5204639e-21)
(0.50301518 -0.016169861 5.9993953e-22)
(0.51760643 -0.01528411 6.6333084e-22)
(0.53196248 -0.014431543 2.9655011e-22)
(0.54607334 -0.013613044 1.050301e-21)
(0.55993075 -0.012829186 -1.6019905e-21)
(0.57352813 -0.012080263 4.4834786e-22)
(0.58686053 -0.011366321 2.4661474e-22)
(0.59992458 -0.010687201 -8.7406111e-23)
(0.61271846 -0.010042574 -1.4379817e-24)
(0.62524181 -0.0094319877 -4.078619e-22)
(0.6374961 -0.0088548881 2.329595e-22)
(0.64948345 -0.0083107668 -2.8562989e-23)
(0.66121077 -0.0077989347 5.7839092e-22)
(0.67267783 -0.0073195996 -2.6705567e-22)
(0.68391502 -0.0068709578 3.516578e-23)
(0.69487283 -0.0064592809 8.185221e-23)
(0.70575392 -0.0060689149 -9.8110852e-23)
(0.71605212 -0.0057590671 -1.6556054e-22)
(0.72735111 -0.0053727938 5.4265131e-22)
(0.7353341 -0.0054340222 1.8355254e-22)
(0.75211237 -0.0046126349 -8.5771148e-22)
(0.17071603 -0.038581347 1.8975858e-21)
(0.17533704 -0.042261627 -1.1872494e-20)
(0.18373912 -0.044887731 6.580683e-21)
(0.19331758 -0.046196183 -1.4265122e-20)
(0.20290011 -0.047051756 -2.1063449e-21)
(0.21285909 -0.047630754 1.0180423e-20)
(0.22335423 -0.047868998 -1.120119e-20)
(0.23430424 -0.047796054 1.0098356e-21)
(0.24565872 -0.047476494 1.3487178e-20)
(0.25740281 -0.046951556 3.9327093e-21)
(0.26951353 -0.046248987 -6.4190836e-21)
(0.28195984 -0.045394938 -3.310753e-21)
(0.29471042 -0.044413654 -5.4637388e-21)
(0.30773414 -0.043326111 -6.8701796e-21)
(0.32099916 -0.042150565 2.6670536e-21)
(0.33447317 -0.040903258 1.4356096e-22)
(0.34812391 -0.039598743 1.6228311e-21)
(0.36191941 -0.038250078 -3.3813072e-21)
(0.3758282 -0.036869022 -4.6671981e-21)
(0.38981956 -0.035466196 2.5609757e-21)
(0.40386367 -0.03405121 3.5877845e-21)
(0.41793184 -0.032632748 -1.907844e-21)
(0.43199661 -0.03121864 1.7096482e-21)
(0.4460319 -0.029815915 -5.4177204e-22)
(0.46001316 -0.028430844 -4.4002814e-21)
(0.4739174 -0.02706897 -3.0672963e-21)
(0.48772329 -0.025735147 -3.2032778e-22)
(0.5014112 -0.024433562 2.8175672e-22)
(0.51496324 -0.023167772 -2.2041201e-21)
(0.52836326 -0.021940736 -1.1236266e-21)
(0.54159682 -0.020754849 2.1257087e-22)
(0.55465124 -0.019611981 -1.4333569e-21)
(0.56751547 -0.018513521 -8.1389991e-23)
(0.58018014 -0.01746042 -5.3268843e-22)
(0.59263748 -0.016453236 -4.3059018e-22)
(0.60488124 -0.015492183 -7.3527542e-22)
(0.61690672 -0.014577186 -1.1132713e-21)
(0.6287107 -0.013707924 -1.0959012e-24)
(0.64029139 -0.012883906 -3.3870188e-24)
(0.65164877 -0.012104492 -6.421889e-22)
(0.66278348 -0.011369102 2.3126188e-24)
(0.67370085 -0.010676899 -4.466017e-22)
(0.68439926 -0.010028285 -6.6962622e-22)
(0.69490698 -0.0094208646 5.238634e-22)
(0.70517468 -0.0088634067 1.3396494e-23)
(0.71539729 -0.008334416 2.5990443e-22)
(0.72508519 -0.0079153816 -1.9099352e-22)
(0.73576104 -0.0073911567 -3.6739673e-22)
(0.74328093 -0.0074775651 -8.5127039e-24)
(0.7592262 -0.0063627606 4.9166956e-22)
(0.27672297 -0.045097331 -2.3481359e-20)
(0.2775476 -0.04980215 5.0580935e-20)
(0.28321178 -0.053006144 1.0834486e-20)
(0.29034648 -0.054526837 -1.6932201e-20)
(0.29712161 -0.055594005 -2.6238259e-21)
(0.30409732 -0.056399837 2.3023125e-21)
(0.31160044 -0.056819378 -2.2166103e-21)
(0.31955067 -0.056871002 -4.9212081e-21)
(0.32789447 -0.056628371 -4.2078589e-21)
(0.33663872 -0.056138159 -1.2738499e-20)
(0.34577899 -0.055430094 1.9195114e-20)
(0.35529449 -0.054532378 7.150758e-21)
(0.36516155 -0.053472128 -1.7246347e-20)
(0.37535575 -0.052273525 9.8625473e-21)
(0.38585055 -0.050958013 7.8367293e-21)
(0.39661757 -0.049544968 -2.3319652e-22)
(0.40762751 -0.048052044 -2.7108534e-21)
(0.41885062 -0.046495349 -4.4095699e-21)
(0.43025705 -0.044889591 -1.6595072e-21)
(0.44181722 -0.043248213 -1.4659394e-21)
(0.45350206 -0.041583502 -3.4714061e-21)
(0.46528332 -0.03990666 0)
(0.4771337 -0.038227868 -1.539639e-21)
(0.48902711 -0.036556327 4.0064725e-21)
(0.50093873 -0.034900296 5.7792584e-21)
(0.51284516 -0.033267127 -8.9888451e-22)
(0.52472452 -0.031663293 -3.4040825e-21)
(0.53655647 -0.030094427 3.5959112e-21)
(0.54832228 -0.028565352 -2.2209291e-23)
(0.56000483 -0.027080123 3.882207e-21)
(0.57158863 -0.025642071 -4.9920492e-22)
(0.5830598 -0.024253855 1.8275784e-21)
(0.59440604 -0.022917507 -9.4057369e-22)
(0.6056166 -0.021634496 4.5053733e-22)
(0.61668226 -0.020405782 -5.7079405e-22)
(0.62759529 -0.01923188 5.9149051e-22)
(0.63834939 -0.018112922 5.6179675e-22)
(0.64893975 -0.017048727 4.7263261e-22)
(0.65936289 -0.016038884 -1.1603475e-21)
(0.66961709 -0.015082785 8.3092338e-22)
(0.67970129 -0.014179889 -4.3398106e-22)
(0.68961901 -0.013329318 -1.4418636e-21)
(0.69936707 -0.01253176 1.8407491e-21)
(0.70897117 -0.011784347 -5.3084996e-23)
(0.71838243 -0.011098301 -2.0994508e-22)
(0.72778616 -0.010446719 -6.8310056e-24)
(0.73671383 -0.009931913 -2.1520149e-22)
(0.74661087 -0.0092851688 -6.2950904e-22)
(0.75355266 -0.0093969158 7.5901784e-22)
(0.76845089 -0.0080217508 -5.1723657e-23)
(0.39908954 -0.047995758 -1.9709381e-20)
(0.39526033 -0.053760241 1.3355874e-20)
(0.39721838 -0.057497228 4.0622341e-21)
(0.40112448 -0.059260379 -8.2431227e-21)
(0.40442216 -0.060626879 1.2897911e-20)
(0.40776475 -0.06176574 8.3114122e-21)
(0.41166983 -0.062495367 -1.295248e-20)
(0.41607515 -0.06281979 -6.405277e-21)
(0.42090884 -0.062808967 1.333707e-20)
(0.42618744 -0.062508719 -1.6848487e-20)
(0.43192231 -0.061949482 -1.4611558e-20)
(0.43810084 -0.061160046 1.5565239e-20)
(0.44470346 -0.060168579 7.0642133e-21)
(0.45170919 -0.059001306 -5.4435721e-21)
(0.45909436 -0.057682294 -1.2232697e-21)
(0.46683256 -0.056233749 -3.4896321e-21)
(0.47489567 -0.054676285 4.7049537e-21)
(0.48325462 -0.053029055 3.6926426e-21)
(0.49187988 -0.051309824 -3.1000651e-21)
(0.50074187 -0.049535034 3.1204295e-21)
(0.5098113 -0.047719864 3.0066064e-21)
(0.51905945 -0.045878278 -3.4215074e-21)
(0.52845845 -0.044023058 3.6630744e-22)
(0.53798148 -0.042165833 -3.171588e-21)
(0.54760286 -0.040317105 8.3905575e-21)
(0.55729829 -0.038486275 6.6349733e-21)
(0.56704482 -0.036681675 1.1054789e-21)
(0.576821 -0.034910605 -1.8583999e-21)
(0.5866069 -0.033179367 4.4245892e-21)
(0.59638413 -0.031493319 8.3007955e-21)
(0.60613585 -0.029856923 2.4252103e-21)
(0.61584676 -0.028273804 3.8153666e-21)
(0.62550307 -0.026746818 2.1817684e-21)
(0.6350925 -0.025278116 8.8370539e-22)
(0.64460424 -0.023869221 -2.4139012e-22)
(0.6540289 -0.022521098 3.1893783e-21)
(0.66335854 -0.021234238 7.1616113e-22)
(0.67258659 -0.020008735 3.2557827e-22)
(0.68170785 -0.018844391 5.7239781e-23)
(0.69071881 -0.017740759 1.2681133e-21)
(0.69961666 -0.016697456 4.1246967e-23)
(0.708403 -0.015713681 6.0928416e-22)
(0.71707306 -0.014790503 -1.2669471e-22)
(0.72564981 -0.013924706 -4.2798802e-22)
(0.73408509 -0.013129904 -2.1080645e-22)
(0.74255315 -0.01237429 -5.7650814e-22)
(0.75061046 -0.011779223 2.5391801e-22)
(0.75961185 -0.011028008 -1.6929972e-22)
(0.76589035 -0.011165054 -4.3426983e-22)
(0.77957495 -0.0095684714 2.903128e-22)
(0.53165916 -0.046359807 3.3959351e-21)
(0.52254328 -0.053231478 -1.9437306e-20)
(0.51986978 -0.057514721 -2.6515747e-21)
(0.51977973 -0.059712019 5.7544687e-21)
(0.51907828 -0.061605652 3.7172371e-21)
(0.5183224 -0.063271479 7.5276789e-22)
(0.5181877 -0.064501565 7.4210125e-21)
(0.51867219 -0.065301129 8.2826014e-21)
(0.51968313 -0.065726285 1.0170235e-20)
(0.5212242 -0.065813271 -1.2009216e-20)
(0.52331218 -0.06559156 -2.3262087e-20)
(0.52593962 -0.065090598 -4.6493845e-21)
(0.52908734 -0.06433917 1.7023988e-20)
(0.53273359 -0.063365158 1.3550939e-20)
(0.53685429 -0.062195296 -5.7078476e-21)
(0.54142253 -0.060854924 7.8745921e-22)
(0.54640934 -0.059367985 -4.3194136e-21)
(0.55178463 -0.057757087 3.303665e-21)
(0.55751772 -0.056043486 -2.9396877e-22)
(0.56357779 -0.054247066 -1.9946965e-21)
(0.56993422 -0.05238634 8.6679434e-21)
(0.57655694 -0.050478453 -5.3946875e-22)
(0.58341667 -0.048539192 6.4716993e-22)
(0.59048512 -0.046582989 -4.1342952e-22)
(0.59773516 -0.044622943 -4.5649291e-21)
(0.60514096 -0.042670836 4.4532733e-21)
(0.61267807 -0.040737164 1.8297192e-21)
(0.62032349 -0.038831177 -3.4784224e-21)