/*--------------------------------*- C++ -*----------------------------------*\
  =========                 |
  \\      /  F ield         | OpenFOAM: The Open Source CFD Toolbox
   \\    /   O peration     | Website:  https://openfoam.org
    \\  /    A nd           | Version:  6
     \\/     M anipulation  |
\*---------------------------------------------------------------------------*/
FoamFile
{
    version     2.0;
    format      ascii;
    class       volSymmTensorField;
    location    "178";
    object      UPrime2Mean;
}
// * * * * * * * * * * * * * * * * * * * * * * * * * * * * * * * * * * * * * //

dimensions      [0 2 -2 0 0 0 0];

internalField   nonuniform List<symmTensor> 
9200
(
(0.00011128693 -8.638447e-05 4.0416693e-22 6.9328866e-05 -2.1614839e-22 6.5342343e-39)
(0.0006857852 -0.00054913024 1.0345512e-21 0.00044139041 -7.7204501e-22 7.1079235e-39)
(0.00138572 -0.0010750804 1.2712806e-22 0.00083890794 -9.6087177e-23 3.8973038e-39)
(0.0021833076 -0.0015822489 -1.557713e-21 0.0011594894 1.09537e-21 7.7686176e-39)
(0.0029686972 -0.0020324536 7.3219968e-23 0.0014155001 -6.100791e-23 1.1391702e-39)
(0.0036873311 -0.0024054745 6.5489198e-22 0.0016067138 -4.3488438e-22 1.7878317e-40)
(0.0043015751 -0.00269427 -1.4132704e-22 0.0017397988 9.7824903e-23 5.1619313e-40)
(0.0047812042 -0.0028993795 1.284621e-22 0.0018259003 -8.6467887e-23 3.4766645e-40)
(0.0051054301 -0.0030249954 6.3566013e-22 0.0018757214 -3.8589692e-22 9.9179607e-40)
(0.0052636523 -0.0030772205 4.9407342e-23 0.0018983585 -3.0170709e-23 2.8279313e-42)
(0.0052554996 -0.0030632524 -6.8508877e-22 0.001901318 4.2138906e-22 5.3232945e-40)
(0.0050906962 -0.0029908761 5.7362735e-22 0.0018906071 -3.661317e-22 7.2836529e-41)
(0.0047883194 -0.002868142 -1.0227031e-21 0.0018708742 6.9009336e-22 1.1394178e-39)
(0.0043752134 -0.0027031698 -5.1901457e-22 0.0018456013 3.5722218e-22 7.2822066e-41)
(0.0038836121 -0.0025040225 1.3472588e-22 0.0018173137 -1.0000184e-22 9.2993439e-42)
(0.0033481882 -0.0022785946 -5.0785448e-22 0.0017877829 3.9793597e-22 9.762689e-41)
(0.0028027693 -0.0020345112 4.4633696e-22 0.0017583091 -3.7918663e-22 1.1840688e-40)
(0.0022770838 -0.0017791558 3.3200923e-22 0.00173064 -2.9538785e-22 4.8346997e-40)
(0.0017961797 -0.0015193389 -1.1445256e-23 0.0017070952 2.4535931e-23 8.913205e-41)
(0.0013874576 -0.0012598887 -6.4183051e-24 0.0016708499 2.1778451e-23 1.1048152e-40)
(0.00014683256 -9.8152118e-05 4.2238703e-23 6.7381037e-05 -1.6217667e-23 1.148868e-40)
(0.00087447656 -0.00060627167 1.0958958e-21 0.00042161689 -7.1288686e-22 7.5825309e-39)
(0.0017373875 -0.0011693683 -3.5627464e-22 0.00079149375 2.3889648e-22 4.1190626e-39)
(0.0026616378 -0.0016895495 -2.7955099e-21 0.0010844325 1.747731e-21 1.797552e-38)
(0.0035199014 -0.0021313576 -9.6322898e-23 0.0013134247 6.1187837e-23 2.2680993e-40)
(0.004249122 -0.0024770718 2.1618878e-21 0.0014805231 -1.2761979e-21 5.9472785e-39)
(0.004810618 -0.0027238276 -8.8827993e-22 0.0015943709 5.1937113e-22 2.0337464e-40)
(0.0051799169 -0.0028769083 -2.6846786e-22 0.001667038 1.5565217e-22 7.3094714e-41)
(0.0053473275 -0.0029449477 1.0203322e-21 0.001709515 -5.9558138e-22 5.5804656e-40)
(0.0053174742 -0.0029379171 -1.238448e-21 0.0017307622 7.3532261e-22 6.4040216e-40)
(0.0051079905 -0.002866205 -8.7965217e-22 0.0017377924 5.3574465e-22 7.9167795e-40)
(0.0047476027 -0.0027400872 1.9023695e-21 0.0017358201 -1.2061592e-21 4.0258923e-39)
(0.0042732889 -0.0025694587 8.873359e-22 0.001728459 -5.9935957e-22 2.8138778e-40)
(0.0037265844 -0.0023637437 -1.4004048e-21 0.0017179541 1.0109844e-21 1.3914378e-39)
(0.0031494605 -0.0021318892 2.5176525e-22 0.0017054086 -1.9616305e-22 1.1606586e-40)
(0.0025803474 -0.0018823765 -5.6040796e-22 0.0016909821 4.8982861e-22 3.0888815e-40)
(0.0020508094 -0.0016232171 -2.3222935e-22 0.0016741128 2.3941094e-22 9.7323606e-41)
(0.0015832413 -0.0013617943 7.1300966e-22 0.0016538104 -8.0117641e-22 1.5730944e-39)
(0.0011910008 -0.0011040504 3.3862983e-22 0.0016271104 -4.5417249e-22 2.9847537e-40)
(0.00088292872 -0.00085590482 -1.4550774e-22 0.0015788219 1.8191572e-22 2.2571487e-39)
(0.00018696296 -0.00010650167 -3.5402817e-22 6.2031288e-05 1.507467e-22 2.955002e-39)
(0.0010756335 -0.00063946774 -5.8983651e-22 0.0003811659 3.2767977e-22 3.0806162e-39)
(0.0020985867 -0.0012146294 -6.731295e-22 0.00070703592 3.9212413e-22 7.7002721e-39)
(0.0031295664 -0.0017245372 2.2384584e-23 0.00096132678 -1.2309743e-23 8.3544399e-43)
(0.0040266971 -0.0021384452 2.9036973e-23 0.0011572405 -1.3565859e-23 5.5322619e-39)
(0.0047231718 -0.0024430979 7.5806835e-22 0.0012990087 -4.0449849e-22 1.546929e-39)
(0.0051860731 -0.0026408857 7.2406526e-23 0.0013964809 -3.6313812e-23 6.4045058e-40)
(0.0054044723 -0.0027419878 -1.2858836e-21 0.0014616015 6.9179983e-22 4.0688436e-40)
(0.0053873689 -0.0027589833 1.5237376e-21 0.0015045888 -8.4072327e-22 7.694815e-40)
(0.0051608483 -0.0027047533 5.0213544e-22 0.0015332712 -2.908915e-22 8.4714946e-40)
(0.004764272 -0.0025916471 -1.3829001e-21 0.0015532721 8.3733907e-22 1.7484108e-39)
(0.0042456836 -0.0024311477 -4.3412695e-22 0.0015682505 2.8189026e-22 5.7179313e-40)
(0.0036565256 -0.0022338638 1.5787316e-22 0.0015801833 -1.0994709e-22 1.5496029e-39)
(0.0030462344 -0.0020096888 3.7666161e-22 0.0015896785 -2.9285929e-22 2.2250549e-40)
(0.0024575069 -0.0017679754 -1.3187902e-22 0.0015962904 1.1471827e-22 1.704189e-40)
(0.001922938 -0.0015176249 3.0760643e-22 0.0015988311 -3.0895891e-22 1.3451684e-40)
(0.0014634335 -0.0012670498 -2.1237711e-22 0.0015956754 2.5128347e-22 5.1528486e-41)
(0.0010883977 -0.0010239532 -4.3226672e-22 0.0015849473 6.0247517e-22 1.260947e-39)
(0.00079757021 -0.00079478609 -1.3922519e-23 0.0015641986 1.4929122e-23 1.1368055e-39)
(0.00058465762 -0.00058550737 1.5006808e-22 0.0015282844 -3.2793341e-22 1.290074e-40)
(0.00023032706 -0.00011019988 -2.8118568e-22 5.3758161e-05 1.0363548e-22 1.4676858e-39)
(0.0012789074 -0.00064316196 4.296037e-22 0.00032423226 -2.1079329e-22 2.734714e-40)
(0.0024475398 -0.0012030735 3.8133518e-22 0.00059498024 -1.8813492e-22 3.1694914e-40)
(0.0035551588 -0.0016807052 8.3267916e-22 0.00080465907 -3.9769889e-22 3.4195809e-39)
(0.0044506193 -0.0020516938 7.3183382e-22 0.00096605344 -3.4793968e-22 1.5210629e-39)
(0.0050706277 -0.0023085437 -1.2851649e-21 0.0010849226 6.1180147e-22 1.1606143e-39)
(0.0053965541 -0.002458856 -7.1897338e-22 0.0011711645 3.4857634e-22 3.3028659e-40)
(0.0054391397 -0.0025166003 0 0.0012353908 0 0)
(0.0052323258 -0.0024966474 7.8568463e-22 0.0012859863 -4.2815668e-22 4.2614971e-39)
(0.0048267844 -0.002412952 -3.4109693e-22 0.0013287627 2.019976e-22 1.6144114e-39)
(0.004282782 -0.0022781182 -2.0018731e-21 0.0013672545 1.1998249e-21 1.4224921e-39)
(0.0036628349 -0.0021035024 -2.567872e-22 0.0014030521 1.6252342e-22 2.8839948e-40)
(0.0030248161 -0.0018995676 9.8647551e-22 0.0014361768 -7.3917451e-22 1.9390828e-39)
(0.0024164453 -0.0016762353 5.6268105e-23 0.0014654927 -3.6815323e-23 8.0319883e-40)
(0.0018719299 -0.0014430469 -1.5258256e-23 0.001489137 1.5063627e-23 5.6273956e-43)
(0.0014110548 -0.0012090717 1.6403727e-22 0.0015049581 -1.915558e-22 9.904921e-41)
(0.0010404877 -0.00098259905 1.1445912e-24 0.0015109006 3.4130457e-24 1.1628599e-40)
(0.00075663459 -0.00077072771 -2.9112076e-22 0.0015051884 4.9586559e-22 3.0131032e-40)
(0.00054906109 -0.00057893812 -1.615764e-22 0.0014870164 3.4446973e-22 2.1008309e-40)
(0.00040407293 -0.00041119436 8.0925576e-23 0.0014586012 -2.5213929e-22 1.3229855e-39)
(0.00027493939 -0.00010819564 2.1239895e-22 4.3338821e-05 -6.7671394e-23 5.7739584e-40)
(0.0014714684 -0.0006137658 8.8475025e-22 0.00025663534 -3.529033e-22 5.2022069e-39)
(0.0027596727 -0.0011314584 6.9536667e-22 0.00046710426 -2.8671716e-22 3.2891148e-40)
(0.0039058203 -0.001558531 7.7464071e-22 0.00063107507 -3.167176e-22 1.8297017e-39)
(0.0047572457 -0.0018779542 -1.1915602e-21 0.00076015942 4.9297287e-22 2.8827286e-39)
(0.0052632842 -0.0020880394 4.5189962e-23 0.00086061284 -1.457649e-23 2.7431766e-40)
(0.0054283529 -0.0022000572 6.8150717e-23 0.00094112144 -2.9759952e-23 2.3050497e-42)
(0.0052912935 -0.0022293653 9.6996019e-22 0.0010099111 -4.5307552e-22 1.0298648e-39)
(0.0049137425 -0.0021906088 1.3097036e-22 0.0010727427 -6.5000299e-23 9.268986e-42)
(0.0043693306 -0.0020966631 -3.5164361e-22 0.0011328466 2.0028598e-22 5.5743425e-40)
(0.0037334221 -0.0019588826 1.1432923e-21 0.0011912961 -7.1368747e-22 3.8855199e-39)
(0.0030742474 -0.001787706 -8.3352708e-22 0.0012474209 5.5254497e-22 3.3320051e-40)
(0.0024463925 -0.0015932145 -1.5692066e-21 0.0012992837 1.2347493e-21 2.3687129e-39)
(0.0018873794 -0.0013853681 -5.1915143e-23 0.0013442157 4.8190727e-23 5.0168352e-42)
(0.0014174419 -0.001173832 5.5847114e-22 0.0013793702 -6.3172711e-22 1.9256581e-39)
(0.0010419058 -0.00096748959 0 0.0014022497 0 0)
(0.00075514643 -0.00077384104 7.0520207e-23 0.001411085 -1.0264941e-22 5.0113924e-41)
(0.00054498993 -0.00059852099 -3.4954121e-23 0.0014049084 7.8260317e-23 7.4613828e-41)
(0.00039645069 -0.00044510054 -3.582116e-23 0.0013845107 7.9337986e-23 1.9565141e-41)
(0.00029447632 -0.00031505884 1.6583172e-23 0.0013558012 -7.3697668e-23 1.3423643e-40)
(0.00031838128 -9.9862238e-05 4.644556e-22 3.1858302e-05 -1.1965459e-22 2.3349847e-39)
(0.001639775 -0.0005508082 4.5588711e-23 0.00018552424 -1.4969318e-23 4.3187959e-42)
(0.0030115455 -0.0010027246 -1.3073799e-22 0.00033667691 4.4191924e-23 1.9118129e-41)
(0.0041542067 -0.0013668936 1.3373582e-22 0.00045800952 -4.3179547e-23 3.7800135e-40)
(0.0049232386 -0.0016333741 -8.2008728e-22 0.00055922965 2.8818884e-22 7.0884233e-40)
(0.00529012 -0.0018046765 -3.9412914e-22 0.00064599485 1.438853e-22 6.3956912e-41)
(0.0052892659 -0.001892728 2.7844857e-22 0.00072480353 -8.5640856e-23 2.0203736e-39)
(0.0049903342 -0.0019110191 -1.034264e-23 0.00080090415 1.166125e-23 1.5806657e-40)
(0.0044805835 -0.0018713081 -6.6382903e-22 0.00087710915 3.3166423e-22 1.6707147e-39)
(0.0038502169 -0.0017836972 1.1512257e-21 0.00095390688 -6.0200581e-22 4.8884108e-40)
(0.0031805393 -0.0016575848 -3.0186637e-23 0.0010298761 4.3920662e-23 8.6822808e-40)
(0.0025358409 -0.0015024955 -9.1214369e-22 0.0011021925 6.6882322e-22 2.3907804e-39)
(0.0019595809 -0.0013284032 0 0.0011672499 0 0)
(0.0014746854 -0.0011454471 2.2111878e-22 0.0012213436 -2.5451748e-22 1.284042e-39)
(0.0010869555 -0.00096320683 1.0976072e-23 0.0012613185 -2.3963028e-23 7.0315065e-41)
(0.00079011018 -0.00078985528 -2.6816788e-22 0.0012850788 4.2861434e-22 1.4911019e-39)
(0.00057102366 -0.00063148959 -6.0766715e-23 0.0012918203 1.1055945e-22 3.10414e-41)
(0.0004141161 -0.00049185359 -1.8428001e-23 0.0012818812 5.1519333e-23 5.0081042e-41)
(0.00030425182 -0.00037254743 -2.4217829e-23 0.0012574841 6.948034e-23 1.9424624e-41)
(0.00022819765 -0.00027327523 4.3401415e-23 0.0012257614 -1.7006518e-22 1.85856e-40)
(0.0003580724 -8.5154743e-05 1.7913621e-22 2.060177e-05 -3.4469382e-23 3.697892e-40)
(0.0017713243 -0.00045732216 -1.2847768e-21 0.00011848204 3.2333895e-22 8.0410609e-39)
(0.0031840483 -0.00082591239 -1.1427341e-22 0.00021665602 3.2387385e-23 7.5082025e-40)
(0.0042820951 -0.0011218942 -3.4300913e-22 0.00030125634 1.0105153e-22 3.776432e-39)
(0.0049395196 -0.0013406562 -2.5607577e-22 0.00037963824 7.129477e-23 5.2149403e-41)
(0.0051579281 -0.0014856654 -1.4505502e-21 0.00045612311 4.5115835e-22 6.895289e-40)
(0.0050049689 -0.0015655818 -7.1087106e-22 0.0005346803 2.5152652e-22 5.5717416e-40)
(0.0045790078 -0.0015887797 1.3745015e-21 0.00061761853 -5.2040749e-22 4.4727377e-40)
(0.0039862691 -0.0015621742 2.3515288e-22 0.00070495823 -1.218665e-22 5.7219403e-40)
(0.0033241471 -0.0014924325 -3.0207702e-22 0.00079461953 1.3780428e-22 1.9557835e-40)
(0.0026702657 -0.0013872291 1.4150687e-22 0.00088290241 -5.2184918e-23 7.3442306e-40)
(0.0020775109 -0.0012557199 -2.681674e-23 0.00096516484 3.6081182e-23 1.8615512e-40)
(0.0015744403 -0.0011081269 0 0.0010366468 0 0)
(0.0011695515 -0.00095469592 1.4984563e-22 0.0010932863 -1.5703039e-22 4.4778062e-41)
(0.00085742432 -0.00080449314 -3.1843111e-22 0.0011323524 4.1964867e-22 6.1211913e-40)
(0.00062489761 -0.00066447377 -1.0337563e-22 0.0011527746 1.5972939e-22 5.2648321e-41)
(0.00045606268 -0.0005390553 1.7843289e-22 0.0011550867 -3.6135971e-22 7.3166516e-40)
(0.00033558794 -0.00043023168 -3.9590313e-23 0.0011410006 5.2930875e-23 1.5748579e-40)
(0.00025037339 -0.0003381784 -2.4525242e-24 0.0011137465 -4.7110413e-24 1.7671156e-41)
(0.00018990786 -0.0002617727 4.0695308e-23 0.0010801278 -1.220195e-22 1.5741489e-41)
(0.00039156063 -6.4661931e-05 1.3036802e-22 1.0881999e-05 -1.7107779e-23 2.3156315e-40)
(0.001856246 -0.00033958313 -1.1905994e-21 6.2457773e-05 2.1458021e-22 3.6877215e-39)
(0.0032647468 -0.0006149566 -9.3031104e-22 0.00011788531 1.8460706e-22 4.4135374e-39)
(0.0042823963 -0.00084437613 1.3280341e-21 0.00017290084 -2.7777426e-22 1.0809987e-39)
(0.0048114817 -0.0010252771 1.0019014e-21 0.00023263925 -2.2583109e-22 2.2450596e-40)
(0.0048882916 -0.0011577681 -7.3322378e-22 0.00030007809 1.6215381e-22 2.3431334e-39)
(0.0046121406 -0.0012433746 2.3919434e-22 0.00037710593 -9.1317743e-23 9.9235516e-40)
(0.0041034584 -0.0012830274 1.4002855e-21 0.00046369344 -4.9788457e-22 1.1126086e-39)
(0.0034779025 -0.0012780993 6.137821e-22 0.00055754281 -2.4195609e-22 1.4015383e-40)
(0.0028303335 -0.0012322494 -6.0296196e-22 0.00065435524 3.087275e-22 3.6294718e-40)
(0.0022272736 -0.0011522519 -8.174782e-22 0.00074850991 4.8844433e-22 4.3300975e-40)
(0.0017066014 -0.0010474906 -2.2276547e-23 0.00083403446 1.6143581e-23 4.5133845e-43)
(0.0012823152 -0.0009285202 2.3489937e-22 0.00090565147 -2.0608608e-22 7.0147302e-41)
(0.00095171945 -0.00080535561 -8.064165e-24 0.00095962434 2.7034667e-23 1.0727951e-40)
(0.00070268721 -0.00068610484 -8.5492789e-24 0.00099420471 4.3935587e-23 2.9035168e-40)
(0.0005194836 -0.00057628035 6.1108214e-24 0.001009628 -5.7324044e-23 5.2450415e-40)
(0.00038658907 -0.00047879271 8.2307926e-23 0.0010077078 -1.6453415e-22 1.535978e-40)
(0.00029068803 -0.00039443886 -4.6378257e-23 0.00099118685 1.3835443e-22 4.0069625e-40)
(0.00022128352 -0.00032271464 -1.1925435e-22 0.00096370504 3.3490914e-22 7.7626954e-40)
(0.00017040169 -0.00026239462 3.991776e-23 0.00093087789 -9.7836554e-23 1.7316832e-41)
(0.00041692158 -3.9559868e-05 -3.3845076e-22 3.85265e-06 2.8202999e-23 6.9177496e-40)
(0.0018886608 -0.00020631822 -2.6440111e-22 2.2811475e-05 2.8382289e-23 7.4593958e-40)
(0.0032491519 -0.00038677456 2.041382e-21 4.7739192e-05 -2.5912723e-22 9.1190549e-39)
(0.0041595273 -0.0005569408 1.5181583e-21 8.009976e-05 -2.197176e-22 9.955153e-40)
(0.0045573696 -0.00071189304 6.7938041e-22 0.00012377097 -1.0651528e-22 4.8908887e-40)
(0.004513343 -0.00084398748 1.3706858e-22 0.00018126539 -2.8034959e-23 4.7005177e-42)
(0.0041521081 -0.00094479869 -1.2853267e-21 0.00025349477 2.8491049e-22 2.0440783e-39)
(0.0036064826 -0.0010069644 0 0.00033899129 0 0)
(0.0029915525 -0.0010268863 -7.8615534e-22 0.00043369598 3.4017982e-22 1.6929408e-39)
(0.0023919608 -0.0010063303 -1.3497508e-22 0.00053147723 8.8915093e-23 3.837191e-40)
(0.0018593297 -0.00095205989 3.8481548e-22 0.0006252228 -2.2303908e-22 9.3278773e-41)
(0.0014167207 -0.00087398034 4.1147663e-23 0.00070819215 -5.2952795e-23 2.1113307e-40)
(0.0010666309 -0.00078275125 -1.8313668e-22 0.00077521013 1.7975527e-22 2.4560128e-40)
(0.00079943746 -0.000687751 -1.3768287e-22 0.00082336929 1.8125701e-22 5.2541893e-40)
(0.00060030725 -0.00059590096 8.9058552e-23 0.00085212997 -9.0379197e-23 6.4461927e-41)
(0.00045380614 -0.00051140247 1.2318356e-22 0.00086291889 -1.5885973e-22 5.9371169e-41)
(0.00034635473 -0.00043612442 -1.0951975e-22 0.00085843432 1.8181805e-22 5.5090697e-41)
(0.00026713169 -0.00037030469 -1.4629719e-22 0.00084190646 3.169184e-22 6.4912507e-40)
(0.00020805069 -0.00031335035 1.1500395e-23 0.0008168274 -2.3768063e-24 7.6382984e-41)
(0.00016318458 -0.00026428464 1.9740531e-23 0.00078729439 -6.7338647e-23 9.0087768e-41)
(0.00043269384 -1.1423451e-05 -2.2338909e-22 3.460947e-07 5.6942755e-24 3.3845166e-40)
(0.0018667239 -6.7607034e-05 9.5332851e-22 2.6770386e-06 -3.4171125e-23 1.876672e-39)
(0.0031406154 -0.00015927834 1.4575033e-21 9.4629382e-06 -8.973231e-23 1.3616294e-38)
(0.0039283411 -0.00028144016 -1.7050119e-21 2.4884419e-05 1.4725141e-22 3.7482356e-39)
(0.0042050294 -0.0004219549 6.1536917e-22 5.3413297e-05 -6.7628984e-23 9.4279326e-41)
(0.0040702659 -0.00056206187 2.516355e-22 9.8679044e-05 1.5726409e-24 3.4624574e-39)
(0.0036644191 -0.00068228802 6.6367244e-23 0.00016199689 -1.3478114e-23 1.2437235e-42)
(0.0031222986 -0.00076769267 -9.436701e-22 0.00024133316 2.1810673e-22 1.1667773e-39)
(0.0025501849 -0.00081118765 -2.1412391e-23 0.00033134072 7.4204233e-24 1.8644872e-43)
(0.0020181678 -0.0008139344 3.515564e-22 0.00042443721 -1.8350223e-22 4.449046e-40)
(0.0015627093 -0.00078327475 2.7502216e-23 0.00051250667 -2.8323358e-23 6.3669408e-41)
(0.0011947671 -0.00072955241 -1.268999e-22 0.000588608 3.3953672e-23 8.2369148e-40)
(0.00090934015 -0.0006631496 -2.8163702e-22 0.00064814642 2.2965368e-22 9.170846e-41)
(0.00069367082 -0.00059252692 -1.481564e-24 0.00068925899 2.2096055e-23 1.0729533e-40)
(0.00053294434 -0.00052345612 9.5118301e-23 0.00071249379 -1.2536332e-22 1.0468586e-40)
(0.00041349717 -0.00045917152 6.3235905e-23 0.00072007087 -1.0090394e-22 1.0158243e-40)
(0.00032415466 -0.00040099625 1.4237591e-23 0.00071504395 -4.7829644e-23 1.6466327e-40)
(0.00025644818 -0.00034908028 -1.0126069e-22 0.00070061437 1.4262011e-22 1.3203808e-40)
(0.00020428454 -0.00030304412 -2.1088171e-23 0.00067975305 -1.3750784e-23 5.6480673e-40)
(0.00016329173 -0.00026220845 5.5100236e-23 0.00065507071 -1.7302328e-22 9.3169829e-40)
(2.8954012e-06 -3.6163637e-07 2.8939689e-23 4.4181394e-07 -5.791794e-24 3.3075672e-40)
(1.3648907e-05 -5.7129576e-06 -4.1292361e-23 2.9346727e-06 1.1441605e-23 3.1843126e-40)
(3.0572704e-05 -1.3202995e-05 9.1721915e-23 5.850197e-06 -3.4362934e-23 1.8288759e-39)
(9.8016064e-05 -2.786072e-05 2.5601838e-22 8.3890684e-06 -5.4600958e-23 6.1507243e-39)
(0.00021509514 -4.5956482e-05 -1.8289915e-22 1.0669665e-05 3.115504e-23 1.5995815e-39)
(0.00038439301 -6.6208405e-05 2.3054101e-22 1.2693669e-05 -3.1296459e-23 1.7674459e-39)
(0.0006114181 -8.7922623e-05 -3.1653983e-22 1.4463855e-05 4.0196499e-23 1.9411175e-39)
(0.00089762148 -0.00011040605 -3.2649848e-22 1.6017146e-05 3.4144485e-23 2.0524655e-39)
(0.0012416278 -0.00013309623 4.1076878e-22 1.7393341e-05 -4.2612329e-23 2.1699085e-39)
(0.0016411267 -0.00015557849 -3.1888121e-22 1.8623522e-05 3.1167658e-23 1.1051837e-39)
(0.0020932343 -0.00017754061 -1.5945205e-23 1.9731341e-05 2.6604868e-25 1.2852163e-41)
(0.0025945395 -0.00019874079 9.1830598e-23 2.0734944e-05 -9.7823857e-24 4.0652722e-41)
(0.0031412651 -0.00021898869 -1.5820554e-23 2.164826e-05 7.6163521e-25 6.4508938e-42)
(0.003729417 -0.00023813363 4.993892e-22 2.2482485e-05 -4.482398e-23 1.9355304e-39)
(0.0043548754 -0.00025606098 6.5905017e-25 2.3247944e-05 9.4634417e-25 4.1813548e-42)
(0.0050134856 -0.00027269905 -7.3442939e-22 2.3955963e-05 6.8780047e-23 3.9806434e-39)
(0.0057011803 -0.00028802517 1.3615585e-22 2.4618639e-05 -1.4337087e-23 8.4050592e-41)
(0.0064139983 -0.00030203842 3.3050853e-22 2.5244967e-05 -3.2794892e-23 1.0122599e-39)
(0.0071480006 -0.00031480026 -5.364578e-22 2.5843864e-05 5.7046107e-23 2.8691309e-39)
(0.0078987255 -0.00032673614 -2.9648675e-22 2.6410764e-05 3.3649936e-23 1.0772689e-39)
(3.2793298e-06 -1.513117e-06 9.531712e-24 3.8881409e-06 -3.5223354e-24 3.2732712e-41)
(1.7399956e-05 -1.9576174e-05 -2.614981e-22 2.5860638e-05 1.9716334e-22 1.0649273e-38)
(3.9046442e-05 -4.4444572e-05 5.1895661e-23 5.1536181e-05 -4.2921599e-23 9.6116203e-40)
(0.00011531431 -9.0189953e-05 2.7539805e-22 7.3904351e-05 -1.6914961e-22 5.1404276e-39)
(0.0002426053 -0.00014584936 3.8264103e-22 9.395478e-05 -1.8387481e-22 5.812896e-39)
(0.00042266876 -0.00020765567 4.6269222e-23 0.00011167468 -1.8552801e-23 5.4605689e-41)
(0.00066034949 -0.00027353696 -1.230237e-21 0.00012709313 4.2614949e-22 2.9073544e-38)
(0.00095630307 -0.00034144424 -4.33487e-23 0.00014053777 1.7957758e-23 8.3955721e-42)
(0.0013084416 -0.00040972631 6.9609533e-22 0.0001523585 -2.1184734e-22 4.9615786e-39)
(0.0017138044 -0.00047716583 -1.6802463e-22 0.0001628291 4.6369818e-23 2.758959e-40)
(0.0021688656 -0.00054284363 -6.3790255e-22 0.00017215791 1.7470859e-22 3.0604252e-39)
(0.0026695666 -0.00060604513 1.3424422e-22 0.00018050375 -3.4301122e-23 1.39349e-40)
(0.0032114711 -0.00066620422 5.6671807e-22 0.00018798662 -1.2664456e-22 3.2827618e-39)
(0.0037898996 -0.00072286742 2.3432465e-22 0.00019470049 -5.8250481e-23 3.7492075e-40)
(0.0043999968 -0.00077568059 4.6887193e-22 0.00020072912 -1.2487488e-22 1.0842525e-39)
(0.0050368219 -0.00082440735 -3.7064715e-22 0.00020616204 9.3340619e-23 9.1734505e-40)
(0.0056955744 -0.00086895355 -3.5434547e-22 0.00021109624 8.8366584e-23 1.0034113e-39)
(0.0063715095 -0.00090928101 3.5803116e-22 0.0002156097 -1.0169784e-22 5.7986068e-40)
(0.0070585743 -0.00094555498 3.2690499e-22 0.00021979068 -9.064383e-23 1.0140863e-39)
(0.0077495865 -0.00097939415 1.2656474e-22 0.0002236319 -3.3736907e-23 4.3078373e-40)
(4.2153897e-06 -3.8740918e-06 7.3340813e-24 1.0370415e-05 -3.6686609e-24 1.7232225e-41)
(2.6300694e-05 -4.0455494e-05 1.9859947e-22 6.903261e-05 -2.125749e-22 4.5385126e-39)
(5.877189e-05 -8.9389495e-05 -4.3459631e-23 0.0001374594 5.6005788e-23 2.3767734e-40)
(0.00015350388 -0.00017117601 -2.9917222e-22 0.00019703887 2.5188902e-22 5.6273993e-39)
(0.00030190226 -0.00026822031 1.1014761e-22 0.0002502572 -9.248422e-23 1.5938688e-40)
(0.0005040387 -0.0003744364 1.4588242e-22 0.00029696669 -1.1858121e-22 8.3805527e-41)
(0.00076342254 -0.00048640298 -1.8178394e-22 0.00033723762 9.6362843e-23 5.0137327e-40)
(0.0010792071 -0.00060080484 -4.7505131e-22 0.00037194284 2.7713719e-22 1.0016323e-39)
(0.0014479443 -0.00071499305 2.0792411e-22 0.00040201261 -1.0103379e-22 2.8004324e-40)
(0.0018654146 -0.00082700751 4.415521e-22 0.00042818035 -1.8354338e-22 1.5904285e-39)
(0.0023268497 -0.00093535592 1.2290413e-22 0.00045100741 -8.5152557e-23 5.9750705e-41)
(0.002826943 -0.0010388656 5.3983335e-22 0.00047092002 -1.7918225e-22 2.9513983e-39)
(0.0033599884 -0.0011365921 4.5771592e-23 0.00048823512 -1.6954362e-23 1.2237189e-41)
(0.0039199918 -0.0012277582 -8.0173392e-22 0.00050319125 2.7064238e-22 4.7453501e-39)
(0.0045007061 -0.0013117285 5.8935105e-23 0.00051599065 -3.8897571e-23 2.6320973e-41)
(0.0050957229 -0.0013880414 -3.7466542e-22 0.00052684396 1.0421532e-22 1.8491251e-39)
(0.0056989038 -0.0014564655 -5.2813923e-22 0.0005359807 2.0909166e-22 7.5996987e-40)
(0.0063041585 -0.0015168607 8.5735256e-22 0.00054362818 -3.3396832e-22 2.5226404e-39)
(0.0069019118 -0.0015694472 4.5258519e-22 0.00055015832 -1.8723879e-22 5.1331368e-40)
(0.0074808971 -0.0016176747 9.0317026e-23 0.00055580211 -4.1105279e-23 1.1012346e-41)
(6.2099657e-06 -8.0132089e-06 -1.0978353e-23 1.909773e-05 1.3823354e-23 2.5253815e-41)
(4.3115956e-05 -7.1830966e-05 -4.6011086e-22 0.00012735113 5.8189315e-22 1.5059542e-38)
(9.5379858e-05 -0.00015484474 -3.3435884e-23 0.00025335587 4.2967977e-23 2.058161e-40)
(0.00022063555 -0.00027988178 7.7125621e-23 0.00036288405 -8.5378485e-23 1.3121581e-40)
(0.00040333885 -0.00042363079 -1.2438884e-23 0.00046022896 3.2072999e-24 3.3889099e-41)
(0.00064108099 -0.00057782736 3.9286419e-22 0.00054484895 -2.8794986e-22 2.473187e-39)
(0.00093531719 -0.00073769698 4.3439902e-22 0.00061683014 -2.8363839e-22 2.2467493e-39)
(0.001282976 -0.00089878029 -1.3159767e-22 0.00067778189 6.3588198e-23 3.5406459e-40)
(0.0016785766 -0.0010575534 -4.8262366e-22 0.00072942967 2.5197335e-22 2.251193e-39)
(0.0021159924 -0.0012113892 -9.7293259e-22 0.00077315405 5.244811e-22 4.7732546e-39)
(0.0025885737 -0.001358261 -2.1250819e-23 0.00081002682 -1.1426079e-23 1.0898955e-40)
(0.0030891413 -0.0014965527 1.2378699e-21 0.00084086866 -5.7632511e-22 7.8007216e-39)
(0.0036101019 -0.0016249326 -5.0157506e-22 0.000866288 1.9118197e-22 2.3062829e-39)
(0.0041435616 -0.0017422792 -3.2404802e-22 0.00088673747 1.4184493e-22 4.5507628e-40)
(0.0046813377 -0.0018476395 -3.9081818e-23 0.00090258351 4.3833557e-23 9.8257414e-41)
(0.0052150688 -0.0019402681 7.6723274e-22 0.00091418377 -3.3634988e-22 1.8666271e-39)
(0.0057368948 -0.0020197395 -4.3455304e-22 0.00092191812 2.177843e-22 1.2518685e-40)
(0.006239248 -0.0020858344 -9.9643371e-22 0.00092626572 4.1981091e-22 4.0187768e-39)
(0.0067086315 -0.0021388617 6.6853317e-22 0.00092838268 -2.9131499e-22 2.0207549e-39)
(0.0071293737 -0.0021844029 5.7649897e-22 0.00092959144 -2.3143839e-22 1.8796355e-39)
(9.9314438e-06 -1.4272103e-05 4.928818e-23 2.9112793e-05 -4.790129e-23 3.2432241e-40)
(7.1533064e-05 -0.00011573644 1.5957612e-23 0.00019436724 -4.110626e-24 1.4653573e-40)
(0.00015630802 -0.00024472836 -6.3408865e-22 0.00038601019 9.0790436e-22 1.2354099e-38)
(0.00032709234 -0.00042127362 -3.642325e-22 0.00055203917 3.868591e-22 3.8214357e-39)
(0.0005597001 -0.00061732444 2.4308389e-22 0.00069856053 -1.9353552e-22 2.309811e-39)
(0.0008483524 -0.00082244126 3.0222943e-22 0.00082432755 -2.4350176e-22 1.0879955e-39)
(0.0011915709 -0.0010304407 -3.9324099e-22 0.00092942666 2.5672668e-22 2.5459505e-39)
(0.0015832277 -0.0012358624 -5.9968727e-22 0.0010163521 3.4394875e-22 5.5868471e-39)
(0.0020150324 -0.001434466 8.8763222e-22 0.001087801 -5.2992876e-22 5.7322725e-39)
(0.0024782068 -0.0016230734 2.5450777e-22 0.0011459778 -1.0282296e-22 1.3344666e-39)
(0.0029635064 -0.0017992099 -8.01666e-22 0.0011926371 5.3060469e-22 4.4223508e-40)
(0.0034612243 -0.0019608874 3.5143801e-22 0.0012291544 -1.5955939e-22 1.0274448e-39)
(0.003961343 -0.0021064648 0 0.0012565779 0 0)
(0.0044536617 -0.0022345527 3.4244386e-22 0.0012756979 -1.6682527e-22 4.0211093e-40)
(0.0049278465 -0.0023439645 -2.569486e-22 0.0012871416 1.2209346e-22 2.147322e-40)
(0.0053736046 -0.0024337555 -3.9370479e-22 0.0012914754 1.9662635e-22 2.6074663e-40)
(0.0057816924 -0.0025033958 1.4528641e-22 0.0012892361 -1.1901873e-22 3.6677835e-40)
(0.0061439437 -0.0025527824 -1.1815079e-22 0.0012811718 7.0775903e-23 1.3260112e-41)
(0.006444165 -0.0025826044 5.6630751e-22 0.0012698169 -2.4523815e-22 2.1760225e-39)
(0.006662158 -0.0026003443 -4.5992589e-22 0.0012593013 2.2563924e-22 1.2686678e-40)
(1.6153479e-05 -2.2758381e-05 4.7274969e-23 3.9465982e-05 -3.9747922e-23 2.6040425e-40)
(0.00011571341 -0.00017254948 2.2782838e-22 0.00026330389 -3.0336501e-22 9.7246602e-40)
(0.00024976344 -0.00035946025 -3.0577028e-22 0.0005212766 4.0573823e-22 2.3184554e-39)
(0.00048379348 -0.00059514827 -5.0195959e-22 0.00074351726 5.6478953e-22 1.9411693e-39)
(0.00078338355 -0.0008477173 -1.4749206e-22 0.00093775194 2.1655725e-22 1.5323775e-39)
(0.0011382355 -0.001104413 -4.5382027e-22 0.0011018343 3.9867736e-22 9.5376761e-40)
(0.0015428115 -0.0013575811 -2.1125155e-22 0.0012359422 1.3003804e-22 1.1022436e-39)
(0.0019869598 -0.0016009613 3.6592913e-22 0.001343607 -2.2001504e-22 2.0331193e-39)
(0.0024587186 -0.0018298393 8.7479528e-22 0.0014286679 -5.2118832e-22 6.9610218e-39)
(0.0029458801 -0.0020407188 2.6942874e-22 0.0014943504 -1.6581441e-22 2.9192294e-40)
(0.0034360059 -0.0022309228 -2.559608e-22 0.0015432991 1.3583745e-22 4.6310888e-40)
(0.0039164695 -0.0023983522 -4.7827842e-23 0.0015776548 -1.047254e-23 4.0338426e-40)
(0.004374706 -0.0025413401 -1.219026e-21 0.0015991105 6.6698848e-22 3.8401221e-39)
(0.0047984588 -0.0026585558 -3.7842223e-22 0.0016089893 1.9788987e-22 3.9721045e-40)
(0.0051759518 -0.002748951 6.3363684e-22 0.0016083497 -3.666085e-22 1.8852752e-40)
(0.0054961766 -0.0028117791 -6.3161043e-22 0.0015980888 3.4145589e-22 3.9287737e-40)
(0.0057502125 -0.0028467698 -2.2278299e-22 0.0015789121 1.0970419e-22 1.256456e-40)
(0.0059317592 -0.0028543113 4.9919671e-22 0.0015516594 -2.104935e-22 1.9532063e-39)
(0.0060255023 -0.0028359872 7.5650639e-22 0.0015204088 -3.7843817e-22 1.4809518e-39)
(0.0060074117 -0.0028005441 9.2175076e-23 0.0014941992 -4.3102584e-23 2.8837627e-41)
(2.5698546e-05 -3.33532e-05 -1.333386e-22 4.9293899e-05 1.0826521e-22 1.5407393e-39)
(0.00017979672 -0.00024095417 -1.4767072e-22 0.00032773933 1.4981386e-22 1.2280637e-39)
(0.00038348151 -0.0004957311 3.734642e-22 0.00064567538 -4.7194301e-22 5.6321544e-40)
(0.00070011635 -0.00079566097 5.6973424e-22 0.00091730154 -5.9011644e-22 2.5755242e-39)
(0.0010833919 -0.0011057707 7.4434062e-24 0.001151694 -6.7016232e-24 5.113342e-43)
(0.0015169945 -0.0014108266 -1.5471014e-21 0.001345877 1.2763449e-21 1.5041176e-38)
(0.001989997 -0.001701757 -6.0591389e-22 0.0015003925 5.1853386e-22 2.1509472e-40)
(0.0024872309 -0.0019718486 4.7112012e-22 0.0016200185 -3.1767948e-22 1.6505658e-39)
(0.0029923576 -0.0022163496 5.4018601e-22 0.0017099233 -3.6266338e-22 1.0094297e-39)
(0.0034893297 -0.002431913 -5.2948954e-22 0.0017745552 2.9473507e-22 2.7709554e-39)
(0.0039624353 -0.0026161557 -1.5559114e-21 0.0018176653 9.8154432e-22 4.0384728e-39)
(0.0043965167 -0.0027674096 1.0233798e-21 0.0018423754 -6.1990788e-22 1.6602539e-39)
(0.0047774065 -0.0028845752 6.0919226e-22 0.0018512358 -3.1763011e-22 1.9891917e-39)
(0.0050923767 -0.0029670291 -8.4454361e-22 0.0018463064 4.6585574e-22 1.641423e-39)
(0.0053305029 -0.0030145625 3.7109163e-22 0.0018292565 -2.1411891e-22 1.1005993e-40)
(0.0054830604 -0.0030273541 6.1596643e-22 0.0018014435 -3.1718657e-22 1.2225568e-39)
(0.0055449476 -0.0030060393 2.3464783e-22 0.0017637516 -1.3223523e-22 4.1635775e-41)
(0.0055157135 -0.002951954 -4.020455e-22 0.0017167694 2.4835131e-22 5.2733019e-41)
(0.0053864723 -0.0028679399 -9.3227395e-23 0.0016654649 3.0269639e-23 3.0280825e-40)
(0.005132308 -0.0027629253 5.2740361e-22 0.0016250969 -3.0468413e-22 1.230285e-40)
(3.9375635e-05 -4.5714535e-05 -3.9559214e-24 5.7830825e-05 -4.2056561e-24 2.8726041e-41)
(0.00026735505 -0.0003179862 -5.3708033e-22 0.00038197561 5.68218e-22 4.0361318e-39)
(0.00056338262 -0.0006466296 -4.2846479e-22 0.00074748349 4.5978506e-22 6.1059385e-39)
(0.00098175332 -0.001011583 8.0507569e-22 0.0010562894 -7.7151699e-22 3.569831e-39)