/*--------------------------------*- C++ -*----------------------------------*\
  =========                 |
  \\      /  F ield         | OpenFOAM: The Open Source CFD Toolbox
   \\    /   O peration     | Website:  https://openfoam.org
    \\  /    A nd           | Version:  6
     \\/     M anipulation  |
\*---------------------------------------------------------------------------*/
FoamFile
{
    version     2.0;
    format      ascii;
    class       volVectorField;
    location    "111";
    object      UMean;
}
// * * * * * * * * * * * * * * * * * * * * * * * * * * * * * * * * * * * * * //

dimensions      [0 1 -1 0 0 0 0];

internalField   nonuniform List<vector> 
9200
(
(0.0022817338 0.00046952344 -6.2480164e-20)
(0.017806391 -0.0050533119 5.0367332e-20)
(0.045593407 -0.010612571 -4.1095565e-20)
(0.082891327 -0.016024194 -6.5742491e-20)
(0.1277347 -0.021104415 2.0309482e-20)
(0.17881734 -0.025425053 3.5742388e-20)
(0.23499891 -0.0287053 -1.3348701e-20)
(0.29522526 -0.030811592 1.0108822e-20)
(0.35851239 -0.031696979 1.8846416e-20)
(0.42391567 -0.0313773 1.6661052e-21)
(0.49050716 -0.029919947 -2.4182237e-20)
(0.55736817 -0.027432748 2.3194322e-20)
(0.62359389 -0.024052819 -4.5192685e-20)
(0.68830748 -0.019935325 -2.3848689e-20)
(0.75068194 -0.015241622 6.6651562e-21)
(0.80996666 -0.010129539 -2.8492828e-20)
(0.86553146 -0.0047308308 2.8664691e-20)
(0.91698574 0.00099248159 2.5549317e-20)
(0.96400002 0.0071660947 -2.2595286e-22)
(1.0040047 0.010524886 -1.5259733e-21)
(0.0068582434 -0.0024159588 -1.7996544e-20)
(0.032062704 -0.012225518 4.3117295e-20)
(0.070411948 -0.019825046 2.4747855e-20)
(0.11874115 -0.025673497 -1.2493444e-19)
(0.17478058 -0.03000357 -1.3619845e-20)
(0.23696155 -0.032628198 7.9967187e-20)
(0.3038729 -0.033475202 -3.8695283e-20)
(0.3741795 -0.032604056 -9.2752886e-21)
(0.44661351 -0.030143366 3.7992453e-20)
(0.51995276 -0.026271348 -4.8123149e-20)
(0.59301145 -0.02120804 -3.4090211e-20)
(0.66464904 -0.015204671 8.1029904e-20)
(0.73379186 -0.0085315958 4.297185e-20)
(0.79946255 -0.0014664638 -7.6513248e-20)
(0.86081293 0.0057158211 1.6459934e-20)
(0.91715447 0.012747781 -4.1355788e-20)
(0.9679952 0.019382817 -1.5791934e-20)
(1.0131328 0.025466816 7.976777e-20)
(1.0525231 0.030605898 3.4772154e-20)
(1.0845027 0.031763981 -8.6766388e-20)
(0.012856484 -0.0051849226 3.8148682e-20)
(0.050068195 -0.01877681 2.1663655e-21)
(0.10074311 -0.027636116 2.302503e-20)
(0.16136014 -0.032985674 1.0514746e-21)
(0.22935763 -0.035559038 -4.2923631e-20)
(0.30288203 -0.035474772 2.0470775e-20)
(0.38022065 -0.032929828 1.4151443e-20)
(0.45973061 -0.028234193 -5.4993775e-20)
(0.53984747 -0.021744234 6.308255e-20)
(0.61908367 -0.013844892 1.6291499e-20)
(0.69604093 -0.0049420449 -6.0771133e-20)
(0.76943994 0.0045512977 -2.0635354e-20)
(0.83815834 0.014231571 9.5719671e-21)
(0.90126886 0.023720712 2.6201932e-20)
(0.95807111 0.032679624 -1.264321e-20)
(1.0081101 0.040816444 3.1016326e-20)
(1.0511841 0.047899569 -2.2624841e-20)
(1.0873683 0.053803754 -7.7242167e-20)
(1.1168895 0.058277869 -2.4870353e-20)
(1.1389963 0.059491406 5.2486984e-20)
(0.020365294 -0.0075847456 2.5178952e-20)
(0.071918796 -0.024004908 5.3562842e-20)
(0.13653831 -0.033000834 2.1073057e-20)
(0.21042563 -0.036680951 1.4379248e-20)
(0.2907487 -0.036365109 1.8937287e-20)
(0.3753568 -0.032546337 -5.1691861e-20)
(0.46222541 -0.025753816 -2.8011936e-20)
(0.54941171 -0.016603508 0)
(0.6350924 -0.0057230927 1.6836937e-20)
(0.71759103 0.0062682283 -7.4097173e-21)
(0.79541581 0.018770922 -1.0824186e-19)
(0.86730687 0.031224531 -1.7122578e-20)
(0.93228084 0.04312913 7.2340517e-20)
(0.98966271 0.054063685 4.7049338e-22)
(1.0390991 0.063698867 -1.7332399e-21)
(1.0805485 0.071802371 2.410062e-20)
(1.1142524 0.078243978 -5.5114365e-21)
(1.1407051 0.083022885 -6.6846594e-20)
(1.1605333 0.0861267 -5.0181417e-20)
(1.1737755 0.086616721 7.3247534e-20)
(0.029401917 -0.0093305905 -3.7695373e-21)
(0.097486207 -0.027155962 -4.5339317e-21)
(0.17736454 -0.034846139 5.9334942e-20)
(0.26507383 -0.035503748 2.0159684e-20)
(0.35755597 -0.03111499 -3.4921094e-20)
(0.45237867 -0.022615338 1.2631763e-20)
(0.547237 -0.01092362 2.8774551e-21)
(0.63995295 0.0029967401 3.7271694e-20)
(0.72855079 0.018226603 6.2334108e-21)
(0.81131551 0.033917581 -1.5021557e-20)
(0.88684969 0.049308323 6.7128816e-20)
(0.95412405 0.063747914 -6.3481403e-20)
(1.0125084 0.076717159 -1.4512835e-19)
(1.0617751 0.087841386 -6.1062635e-21)
(1.1020739 0.096892778 9.0536959e-20)
(1.1338789 0.10378187 0)
(1.1579176 0.10854491 1.1225846e-20)
(1.1750982 0.11134594 -1.6537559e-20)
(1.1863938 0.1123733 -9.5515849e-21)
(1.1923962 0.11123092 2.2113755e-20)
(0.039892593 -0.010116486 -4.8725997e-21)
(0.12638973 -0.027468726 4.5272432e-21)
(0.22239989 -0.032157239 -9.1767799e-21)
(0.32394665 -0.028356234 2.952826e-20)
(0.42782684 -0.018780397 -3.1757032e-20)
(0.53138852 -0.0048625757 -1.8264476e-20)
(0.63213766 0.012052196 3.8894035e-20)
(0.72779518 0.030642998 4.7754721e-21)
(0.81641016 0.049719939 -2.7652429e-20)
(0.89644029 0.06825744 7.6318682e-20)
(0.9668098 0.085411954 7.0703206e-23)
(1.0269393 0.10054136 -8.8019949e-20)
(1.0767382 0.11321495 0)
(1.1165591 0.1232083 4.2709757e-20)
(1.1471196 0.13048345 5.8670377e-21)
(1.169404 0.13515736 -8.3138984e-20)
(1.1845563 0.13746666 -2.103395e-20)
(1.1937843 0.13774529 -1.321129e-20)
(1.1982546 0.13633489 -1.5707215e-20)
(1.198824 0.13316329 4.2936743e-20)
(0.051660209 -0.0096366445 -1.733255e-20)
(0.1579822 -0.024234054 -3.9051983e-21)
(0.27044614 -0.024067484 3.093961e-20)
(0.38525511 -0.014408521 3.7811203e-20)
(0.49918875 0.0012729192 -2.0974881e-20)
(0.60949606 0.021022333 -7.4465904e-20)
(0.71365215 0.043071529 -3.0794815e-20)
(0.80947716 0.065780933 8.5370565e-20)
(0.89527529 0.087764057 9.8755839e-21)
(0.96991633 0.10792172 -2.6692632e-20)
(1.032868 0.1254504 1.4432678e-20)
(1.084178 0.13984335 -4.7346727e-21)
(1.1244075 0.15087434 0)
(1.1545247 0.15856177 2.9240715e-20)
(1.1757762 0.1631183 -8.4892039e-20)
(1.1895539 0.16489309 -3.3650444e-20)
(1.1972731 0.16431652 8.6159894e-20)
(1.2002774 0.16186167 -5.0301026e-21)
(1.1997614 0.15796555 3.640043e-21)
(1.1966245 0.1527381 2.9012845e-20)
(0.064418929 -0.0076134587 -3.2688098e-20)
(0.19135751 -0.016866681 -8.4896779e-20)
(0.31997581 -0.0099551912 1.0056326e-21)
(0.44688483 0.0067997185 7.4404781e-20)
(0.56902413 0.029200913 6.6204316e-20)
(0.683725 0.054797032 -7.5076978e-20)
(0.78865009 0.081455501 6.095165e-22)
(0.88196481 0.10731608 9.2750638e-20)
(0.96247812 0.13092462 5.2514364e-20)
(1.029696 0.1512545 -5.8570968e-20)
(1.0838001 0.16768852 -9.9297729e-20)
(1.1255616 0.17998434 -3.3877612e-21)
(1.1562067 0.1882178 4.505335e-20)
(1.1772558 0.19270844 -6.929664e-21)
(1.1903604 0.19393746 -1.3418852e-20)
(1.1971597 0.19246899 2.0440527e-20)
(1.1991695 0.18888475 4.6377178e-20)
(1.197712 0.1837417 -4.6002781e-20)
(1.1938801 0.17751111 -1.0783846e-19)
(1.1884783 0.1703939 2.626647e-20)
(0.077744772 -0.0038281232 -3.6341766e-20)
(0.22531257 -0.0049805074 -1.7677232e-19)
(0.36910837 0.010475446 8.7665556e-20)
(0.50640046 0.035301087 9.8128453e-20)
(0.63451155 0.064666603 6.0973422e-20)
(0.75108965 0.095710249 9.2161559e-21)
(0.85424184 0.12605763 -1.1293401e-19)
(0.94273531 0.15378443 0)
(1.0161084 0.17754186 -7.4155114e-20)
(1.0746672 0.19654496 -1.6390542e-20)
(1.1193904 0.21050813 5.8382843e-20)
(1.1517692 0.21955935 1.1618395e-20)
(1.1736133 0.22413542 -4.8325548e-20)
(1.186856 0.22486943 -5.1735009e-20)
(1.1933847 0.22248527 2.5861616e-20)
(1.1949141 0.21771043 4.7545395e-20)
(1.1929095 0.2112144 -5.8697371e-20)
(1.1885572 0.20357535 -1.1293596e-19)
(1.1827728 0.19524601 -3.0202568e-21)
(1.1762039 0.18646424 2.8260165e-20)
(0.091059177 0.0018648136 -4.2627471e-21)
(0.25835312 0.0115992 9.1098532e-20)
(0.4156497 0.037201119 -1.3288995e-20)
(0.5611343 0.070727678 -9.0342518e-20)
(0.69276425 0.10688845 4.7897126e-20)
(0.80876362 0.14257212 5.096918e-20)
(0.90794058 0.17535373 5.9088213e-21)
(0.98988637 0.20345352 -1.0570502e-19)
(1.0550262 0.22582783 -2.6678915e-21)
(1.1045391 0.24210113 5.3749223e-20)
(1.1401839 0.25243838 6.3396842e-21)
(1.1640759 0.25740046 -2.1013092e-20)
(1.1784576 0.25779397 -7.9927694e-20)
(1.1854997 0.25453192 -6.4498928e-21)
(1.1871535 0.24852037 4.5679553e-20)
(1.1850643 0.24057921 3.8753275e-20)
(1.1805415 0.23139788 2.0495018e-20)
(1.1745744 0.22152029 -5.6020475e-20)
(1.1678783 0.2113437 1.2850372e-20)
(1.1609319 0.20111526 8.592595e-20)
(-0.0013545864 0.0014707884 -6.2848038e-22)
(-0.0047767795 0.0031959035 1.7293193e-21)
(-0.010817314 0.0040686014 2.5629654e-21)
(-0.017597067 0.0043730448 -5.4891357e-23)
(-0.024212308 0.0042854021 -3.0784338e-21)
(-0.030235929 0.0039256479 3.2077069e-21)
(-0.035392786 0.0033810509 -9.5357887e-21)
(-0.039510528 0.0027142931 -8.2034938e-21)
(-0.042498938 0.0019697138 1.4388184e-20)
(-0.044321991 0.0011784455 -1.224811e-20)
(-0.044977382 0.00036209238 -2.0734523e-22)
(-0.04448369 -0.00046461785 4.5383409e-21)
(-0.042871816 -0.0012918347 -7.1330654e-22)
(-0.040179139 -0.0021130112 2.7167191e-20)
(-0.036445899 -0.0029234955 2.4839272e-22)
(-0.03171471 -0.0037190355 -4.7962247e-20)
(-0.026033071 -0.0044951254 8.969287e-21)
(-0.019445087 -0.0052497399 2.7472365e-20)
(-0.011963157 -0.0059814273 -5.0234383e-20)
(-0.0036530197 -0.0066400555 -3.1581811e-20)
(-0.0017131841 0.0042773643 -5.9518153e-21)
(-0.0053909591 0.0092694964 8.819535e-21)
(-0.011151868 0.011777523 -1.0763134e-20)
(-0.017294584 0.012626652 7.0923598e-21)
(-0.023018711 0.012330671 8.2718857e-21)
(-0.027950195 0.011241451 1.0817273e-21)
(-0.031850998 0.0096150656 -3.1567941e-20)
(-0.034575643 0.0076353875 -2.546579e-21)
(-0.036052005 0.00543249 2.5615216e-20)
(-0.036255831 0.0030976986 -6.2925136e-21)
(-0.035192247 0.00069436444 -2.675074e-20)
(-0.032884225 -0.0017343563 5.9220644e-21)
(-0.029364927 -0.0041596534 2.6667254e-20)
(-0.024672364 -0.0065624474 1.2204661e-20)
(-0.018845637 -0.008929259 2.5962615e-20)
(-0.011925452 -0.011248004 -2.3027337e-20)
(-0.0039641232 -0.01350603 -2.4913718e-20)
(0.0049824675 -0.015696805 2.4740861e-20)
(0.014974521 -0.017805535 3.03571e-20)
(0.026207057 -0.019660679 1.7440728e-20)
(-0.0023577864 0.0066836286 -4.8396089e-21)
(-0.0064482342 0.014408185 -4.1749344e-21)
(-0.011594796 0.018242423 -1.5661787e-22)
(-0.016438646 0.019467635 -1.140639e-21)
(-0.020377041 0.018887817 8.2748132e-21)
(-0.02313824 0.017060551 1.2906489e-20)
(-0.024556273 0.01439254 -4.9808982e-21)
(-0.024537942 0.011176013 -2.3474699e-20)
(-0.02304664 0.0076180589 8.1505806e-21)
(-0.020081693 0.0038643324 1.5813049e-20)
(-0.015663709 1.6006157e-05 7.3826431e-21)
(-0.0098256257 -0.0038579626 2.13771e-20)
(-0.0026067856 -0.0077116693 2.0483577e-21)
(0.0059513239 -0.0115151 -3.9293184e-20)
(0.015808817 -0.015247386 1.8481519e-21)
(0.026925819 -0.018890252 -2.4676679e-20)
(0.039239484 -0.022426589 -2.873876e-20)
(0.052667727 -0.02584784 5.2968915e-20)
(0.06739029 -0.029100353 2.9356596e-20)
(0.084107864 -0.031813896 7.916845e-22)
(-0.0031609353 0.0084712149 -6.1331099e-21)
(-0.0076578631 0.018096641 -1.3575074e-20)
(-0.011783201 0.022774265 4.5887081e-21)
(-0.01464553 0.02411367 5.1405109e-21)
(-0.015914206 0.023136211 2.2068946e-21)
(-0.015460887 0.020564383 9.836182e-21)
(-0.013222146 0.016926982 1.197947e-20)
(-0.0091803145 0.012604293 -1.831277e-21)
(-0.0033514342 0.007866516 -1.4100138e-20)
(0.0042286857 0.0029042342 -3.5198076e-20)
(0.013513771 -0.002149887 2.4993909e-22)
(0.02445201 -0.0072053013 4.8053301e-20)
(0.03699016 -0.012202081 -2.1014369e-20)
(0.051075084 -0.017101349 -1.4282738e-20)
(0.066657739 -0.021877174 8.0452879e-23)
(0.08369154 -0.026508948 3.7312636e-20)
(0.10209626 -0.030982444 -1.7877923e-20)
(0.12174483 -0.035297103 -6.0238891e-20)
(0.14293924 -0.039336856 5.0894531e-20)
(0.16709421 -0.042414048 3.7073935e-20)
(-0.0039529048 0.0094935227 -2.6402904e-22)
(-0.0086240001 0.019975811 -1.3933227e-20)
(-0.011211371 0.024882707 -4.2046699e-20)
(-0.01136787 0.026002132 -8.1246435e-21)
(-0.0090846094 0.024485048 -3.143897e-21)
(-0.0044071506 0.021168406 8.0076549e-21)
(0.0026008589 0.016667252 -6.1536314e-21)
(0.011861219 0.011423957 -1.0985689e-20)
(0.023288515 0.0057536259 2.6240032e-20)
(0.036795864 -0.00012096099 5.7819487e-21)
(0.052298433 -0.0060441839 -3.0489394e-20)
(0.069713012 -0.011909576 1.2660661e-20)
(0.088958285 -0.017646645 0)
(0.10995516 -0.023210814 1.3922657e-20)
(0.1326297 -0.028574574 -1.1107603e-20)
(0.15691243 -0.033720012 -1.6612614e-20)
(0.18269201 -0.038645856 -5.4454297e-22)
(0.2097743 -0.04338039 -2.957117e-21)
(0.23854069 -0.04774497 5.0023691e-20)
(0.27125872 -0.050597926 -1.317734e-20)
(-0.0045409595 0.0096851463 -8.0392592e-21)
(-0.008881608 0.019869172 2.8378563e-20)
(-0.0092648381 0.024317293 -1.3039537e-20)
(-0.0059184017 0.024844316 -3.2223977e-20)
(0.00081989615 0.022638762 -3.1085586e-20)
(0.010710978 0.018597416 -1.7718868e-20)
(0.023545946 0.013381275 -1.0876802e-21)
(0.039133396 0.0074645845 6.6481634e-21)
(0.057302714 0.0011859884 2.291637e-20)
(0.07790035 -0.0052141301 8.5801322e-21)
(0.10078419 -0.011567704 -8.2189906e-21)
(0.12582046 -0.017759729 -1.9106985e-21)
(0.15287968 -0.0237146 -4.4012482e-20)
(0.18183392 -0.029386147 -1.4520086e-20)
(0.21255833 -0.034749291 2.2104838e-20)
(0.24493254 -0.039794181 -2.4349269e-20)
(0.27879086 -0.044542821 -1.0154196e-20)
(0.31384831 -0.049080453 3.3202299e-20)
(0.35049178 -0.053202529 5.513128e-20)
(0.39188019 -0.055208733 3.8707095e-21)
(-0.0047262127 0.0090574006 1.7794956e-20)
(-0.0079309721 0.017783423 1.5427527e-20)
(-0.0052573274 0.021081127 5.7497667e-20)
(0.0024975936 0.02065402 2.7231981e-20)
(0.014644996 0.01763973 2.1684726e-22)
(0.030742193 0.012939929 -4.6236915e-20)
(0.050422448 0.0072199724 -2.8055791e-20)
(0.073367713 0.00095507302 1.2130333e-20)
(0.099303052 -0.0055161056 1.6634461e-20)
(0.12798622 -0.011953315 -1.4818846e-20)
(0.15919546 -0.01818916 -5.0882445e-20)
(0.19272006 -0.024110445 3.4151708e-20)
(0.22835256 -0.029644737 2.2516804e-20)
(0.26588309 -0.034751235 -3.1378657e-20)
(0.30509915 -0.039413899 1.3445127e-20)
(0.34578974 -0.043638115 2.7214175e-20)
(0.3877006 -0.047479109 9.2895177e-21)
(0.43043177 -0.051109068 -1.391483e-20)
(0.47429059 -0.054374847 -1.4836122e-20)
(0.52324582 -0.055005093 8.8379596e-21)
(-0.0043149588 0.0076846813 1.2146021e-20)
(-0.005265706 0.013888297 -2.7022153e-20)
(0.0015324985 0.01541695 8.3710693e-21)
(0.01474115 0.013744032 3.8253831e-20)
(0.033329911 0.0098751271 5.8326828e-20)
(0.056649675 0.0046652414 2.3056324e-20)
(0.084166091 -0.0012557393 -6.6305124e-21)
(0.11541555 -0.0074448099 -1.3987199e-20)
(0.1499976 -0.013588356 -7.1893211e-21)
(0.18755491 -0.019466328 3.9164619e-20)
(0.22775372 -0.024928837 -5.4925346e-21)
(0.27026943 -0.029878886 -1.9230163e-20)
(0.31477565 -0.034260122 -2.2150867e-20)
(0.36093653 -0.03804916 -5.3927833e-20)
(0.40840611 -0.041250735 2.6073365e-20)
(0.45683661 -0.043897368 -1.5820444e-20)
(0.50584825 -0.046091063 2.9441766e-20)
(0.55491559 -0.04812487 2.3764295e-20)
(0.60420625 -0.050015938 -9.2450126e-20)
(0.65830435 -0.049084878 6.5034227e-22)
(-0.0031259386 0.0056890343 2.3507508e-20)
(-0.00039945442 0.0084910354 -2.9352406e-20)
(0.011813174 0.0077863678 -4.9326025e-20)
(0.031668769 0.004716022 -3.0328606e-20)
(0.057812875 8.1444602e-05 -2.2977298e-21)
(0.089385674 -0.0053580574 1.485408e-20)
(0.12567188 -0.011047917 -3.2211303e-21)
(0.16604306 -0.016609856 2.0402595e-20)
(0.20994457 -0.021783308 9.9620067e-21)
(0.25686808 -0.026392578 -1.2867234e-20)
(0.30632618 -0.03032691 1.0340581e-20)
(0.35783447 -0.033525427 -2.7119323e-20)
(0.41089925 -0.035966261 9.6583721e-21)
(0.46500977 -0.037659732 1.9025112e-20)
(0.519638 -0.038644199 -3.3218151e-21)
(0.5742494 -0.038987599 2.1080106e-21)
(0.62828904 -0.038840126 -7.9403648e-22)
(0.6810896 -0.038599566 2.2317152e-20)
(0.73265391 -0.038472035 3.9429494e-21)
(0.78794924 -0.035864303 -3.4672201e-21)
(-0.00099092419 0.0032279567 2.5826603e-20)
(0.0071142672 0.0020200113 6.3355696e-20)
(0.026225568 -0.001134678 -5.3442509e-20)
(0.054033637 -0.0055228161 -1.0998486e-20)
(0.088875406 -0.010619261 2.2552437e-20)
(0.12967688 -0.015808123 2.3762968e-21)
(0.17552619 -0.020651073 -3.314092e-20)
(0.22560309 -0.024871908 7.8155873e-21)
(0.27916261 -0.028296985 7.9280017e-21)
(0.33550307 -0.030826643 -2.9486752e-20)
(0.39393859 -0.032419572 1.4462744e-21)
(0.4537824 -0.033079969 -4.2044055e-20)
(0.5143384 -0.032846976 -4.1146399e-20)
(0.57489908 -0.031786216 7.4413381e-20)
(0.6347494 -0.029982363 6.2924809e-21)
(0.6931747 -0.027537904 -1.710892e-20)
(0.74944725 -0.024612513 2.1704038e-20)
(0.80275515 -0.021507383 -1.0086171e-21)
(0.85265575 -0.018250798 2.1489235e-20)
(0.90278942 -0.013354506 -2.2932075e-20)
(0.0062286335 -0.0069298191 6.6311191e-20)
(0.017801132 -0.0074360904 1.7284246e-20)
(0.030827204 -0.0078355982 -3.8550628e-20)
(0.044945388 -0.0080547292 1.8752375e-20)
(0.059866308 -0.0081794625 0)
(0.075516342 -0.0082405874 0)
(0.091827349 -0.0082413006 -2.4614365e-20)
(0.10870982 -0.0081898088 -1.7432186e-20)
(0.12608263 -0.0080963675 2.0421275e-20)
(0.14387667 -0.0079685619 1.9131005e-20)
(0.16202842 -0.0078121769 1.0289113e-21)
(0.18047812 -0.0076323065 -1.051045e-20)
(0.1991701 -0.007433414 8.7990636e-21)
(0.21805249 -0.0072192966 1.8279236e-20)
(0.23707667 -0.0069932067 -5.5719924e-21)
(0.25619685 -0.006757967 -9.9919379e-21)
(0.27536988 -0.0065160375 -4.1958654e-21)
(0.29455507 -0.006269569 -4.1283659e-21)
(0.31371408 -0.0060204503 6.5627945e-22)
(0.33281081 -0.0057703463 1.1956352e-21)
(0.35181141 -0.0055207275 2.5907808e-21)
(0.37068421 -0.0052728925 6.3147333e-21)
(0.38939979 -0.0050279858 3.920332e-23)
(0.40793095 -0.0047870115 -3.2451516e-21)
(0.42625273 -0.0045508445 1.0337174e-22)
(0.44434245 -0.0043202388 -5.329173e-22)
(0.46217965 -0.0040958358 1.1377394e-21)
(0.47974615 -0.0038781711 8.8830694e-22)
(0.49702597 -0.0036676809 -1.283527e-21)
(0.5140053 -0.0034647091 -7.8432414e-23)
(0.53067248 -0.0032695139 -1.2034882e-22)
(0.54701787 -0.0030822748 -3.0672671e-22)
(0.56303384 -0.0029031002 -4.1461792e-22)
(0.57871464 -0.0027320341 1.2535509e-22)
(0.59405634 -0.0025690647 -1.1654958e-22)
(0.60905673 -0.0024141317 -1.7095734e-22)
(0.62371523 -0.0022671343 1.9298741e-22)
(0.6380329 -0.0021279397 2.1325996e-22)
(0.65201223 -0.0019963928 -5.6891442e-23)
(0.6656576 -0.0018723212 -1.7161101e-22)
(0.67897394 -0.001755565 1.4984083e-24)
(0.6919712 -0.0016459319 -9.655883e-24)
(0.7046514 -0.0015434158 6.71334e-23)
(0.7170496 -0.0014476108 -5.425022e-23)
(0.72911376 -0.0013597462 -1.5412846e-22)
(0.74106599 -0.0012766569 1.8653456e-23)
(0.75235564 -0.0012102232 1.2612254e-23)
(0.76471165 -0.0011290702 -6.9792956e-24)
(0.77341924 -0.0011381265 2.2308718e-23)
(0.79170992 -0.0009722284 3.8274808e-22)
(0.037284492 -0.020393511 -1.5173201e-20)
(0.047795056 -0.021930939 -7.0384848e-20)
(0.060245077 -0.023105681 -3.4578084e-20)
(0.073760651 -0.023729402 4.2603394e-20)
(0.087931495 -0.024087087 1.6114126e-20)
(0.10276605 -0.024268107 -2.0310219e-20)
(0.11823015 -0.024274031 5.6858448e-21)
(0.1342375 -0.024127453 2.6984419e-20)
(0.15071444 -0.023858877 -4.4337223e-22)
(0.1676018 -0.023490114 -8.2686842e-21)
(0.18484347 -0.023037517 -1.2797497e-20)
(0.20238523 -0.022515702 -9.1994845e-21)
(0.22017606 -0.021937577 1.8070296e-20)
(0.23816804 -0.021314135 1.0218045e-20)
(0.25631569 -0.020654816 -1.5934652e-20)
(0.27457577 -0.019967848 -5.9769708e-21)
(0.29290717 -0.019260437 3.0026612e-21)
(0.31127085 -0.018538904 7.8989449e-21)
(0.32962975 -0.017808822 6.8791713e-21)
(0.34794879 -0.017075123 -7.1574553e-21)
(0.36619489 -0.016342177 -3.5687163e-21)
(0.38433698 -0.015613855 1.7595658e-21)
(0.40234605 -0.014893579 9.1550821e-22)
(0.42019516 -0.01418436 1.2734047e-21)
(0.43785952 -0.013488828 2.8850592e-22)
(0.45531645 -0.012809257 -4.1584726e-22)
(0.47254545 -0.012147586 -7.69146e-22)
(0.48952818 -0.01150544 1.1592962e-21)
(0.50624842 -0.01088415 9.1021626e-22)
(0.52269207 -0.010284771 -3.8330251e-22)
(0.53884708 -0.0097081009 6.3481576e-22)
(0.5547034 -0.0091547049 -2.0857005e-22)
(0.5702529 -0.0086249334 -4.5053556e-22)
(0.58548931 -0.0081189459 -6.3122876e-22)
(0.60040813 -0.0076367334 3.7361508e-22)
(0.61500656 -0.0071781416 -2.0170221e-22)
(0.62928341 -0.0067428954 2.7693807e-22)
(0.64323907 -0.0063306218 -4.8846166e-22)
(0.65687538 -0.0059408818 5.1894545e-22)
(0.67019604 -0.0055731825 5.3770145e-23)
(0.68320531 -0.0052270687 -1.5452957e-23)
(0.69591243 -0.0049019862 2.5075799e-22)
(0.70831881 -0.0045979382 3.3955927e-22)
(0.72045857 -0.0043137268 2.6495125e-22)
(0.73227965 -0.0040530519 2.9543752e-22)
(0.74400124 -0.0038064543 -9.2199433e-24)
(0.7550785 -0.0036094535 1.5256898e-22)
(0.76721871 -0.0033683658 1.3194607e-22)
(0.77576736 -0.0033960011 -2.1318325e-22)
(0.79377129 -0.0029029013 1.8587298e-23)
(0.097355833 -0.03264661 1.1099747e-20)
(0.10578776 -0.035226602 4.4162258e-21)
(0.11700237 -0.037126154 -1.5398419e-20)
(0.12929685 -0.038083903 -2.0551645e-21)
(0.14196816 -0.038644983 1.7159791e-20)
(0.1551829 -0.038951358 -1.6279186e-20)
(0.16898107 -0.038983816 -3.2996107e-20)
(0.18327902 -0.038773471 1.620379e-20)
(0.19801432 -0.038370168 1.9972534e-20)
(0.21314603 -0.037807743 -1.260188e-20)
(0.22863151 -0.037110592 1.069628e-21)
(0.24442608 -0.036301076 8.1532395e-21)
(0.26048676 -0.035399314 -1.62501e-20)
(0.2767724 -0.034422514 4.6345494e-21)
(0.29324292 -0.033385529 8.0744576e-21)
(0.30985938 -0.032301413 -1.0599454e-21)
(0.32658409 -0.031181692 -4.0703468e-22)
(0.3433807 -0.030036562 -7.8514928e-21)
(0.3602143 -0.028875075 4.9839452e-21)
(0.37705144 -0.027705294 8.841833e-21)
(0.39386027 -0.026534409 -3.9546916e-21)
(0.41061062 -0.025368829 -2.1299833e-21)
(0.42727409 -0.024214246 7.5904236e-22)
(0.44382413 -0.023075695 -1.832118e-21)
(0.46023609 -0.021957594 1.266733e-21)
(0.47648729 -0.020863782 6.6780708e-22)
(0.49255703 -0.019797554 2.0656973e-21)
(0.50842661 -0.018761685 -2.3866463e-21)
(0.52407934 -0.017758467 2.6993757e-21)
(0.53950051 -0.016789735 6.2887662e-22)
(0.55467735 -0.015856902 8.2015197e-22)
(0.569599 -0.014960992 2.8156424e-22)
(0.58425643 -0.014102672 1.1569504e-21)
(0.59864238 -0.013282295 -1.7411482e-21)
(0.6127513 -0.012499928 4.9512486e-22)
(0.62657927 -0.011755398 3.2930495e-22)
(0.64012396 -0.01104833 -1.1285429e-22)
(0.65338456 -0.010378184 -5.4609515e-23)
(0.6663617 -0.0097443065 -4.2944023e-22)
(0.6790578 -0.0091459533 2.6303391e-22)
(0.69147591 -0.0085824398 -2.4673224e-23)
(0.70362394 -0.0080529126 6.9166698e-22)
(0.71550213 -0.0075574428 -3.1610194e-22)
(0.72714293 -0.0070940973 2.7788037e-23)
(0.73849421 -0.0066690668 1.0486104e-22)
(0.74976968 -0.0062667315 -1.1276519e-22)
(0.7604355 -0.0059458032 -1.9219403e-22)
(0.7721575 -0.0055518369 6.3499439e-22)
(0.78039755 -0.0055990447 1.8974585e-22)
(0.79784495 -0.0047927407 -8.7371478e-22)
(0.1830883 -0.042878962 2.1369237e-21)
(0.18848745 -0.046488761 -1.2057034e-20)
(0.19769379 -0.049037904 6.5423074e-21)
(0.20811032 -0.050249902 -1.483258e-20)
(0.21854142 -0.050993153 -2.1850989e-21)
(0.22935593 -0.051449827 1.0796231e-20)
(0.24071664 -0.051557223 -1.206713e-20)
(0.25253996 -0.051345765 6.7400696e-22)
(0.26477163 -0.050881797 1.3839122e-20)
(0.27739412 -0.050208372 4.2522272e-21)
(0.29038227 -0.0493547 -6.5453768e-21)
(0.30370263 -0.048348235 -3.5804358e-21)
(0.31732153 -0.047214459 -5.2360603e-21)
(0.33120571 -0.04597547 -7.1204408e-21)
(0.34532133 -0.044650521 2.3238692e-21)
(0.35963428 -0.043256728 -2.8044672e-22)
(0.37411064 -0.041809407 1.7765994e-21)
(0.38871702 -0.040322267 -3.3789884e-21)
(0.40342071 -0.038807611 -4.9231277e-21)
(0.41818994 -0.037276504 2.6811846e-21)
(0.43299408 -0.0357389 3.8065011e-21)
(0.44780378 -0.034203737 -2.1154759e-21)
(0.46259114 -0.032679016 1.7837551e-21)
(0.47732983 -0.031171856 -6.3256992e-22)
(0.49199518 -0.029688547 -4.6900673e-21)
(0.50656428 -0.02823459 -3.0876749e-21)
(0.521016 -0.026814737 -3.9877206e-22)
(0.53533106 -0.025433028 1.9316733e-22)
(0.54949201 -0.02409283 -2.2000593e-21)
(0.56348324 -0.022796879 -1.2855842e-21)
(0.57729096 -0.021547321 2.0301854e-22)
(0.59090317 -0.020345757 -1.5438741e-21)
(0.60430958 -0.019193296 -1.3424396e-22)
(0.6175016 -0.018090596 -5.9803524e-22)
(0.63047224 -0.017037923 -4.0558409e-22)
(0.64321611 -0.0160352 -8.649805e-22)
(0.65572931 -0.015082065 -1.2770069e-21)
(0.66800944 -0.01417792 3.1108438e-23)
(0.68005549 -0.013322008 -3.0668296e-24)
(0.69186822 -0.012513435 -7.1579272e-22)
(0.70344901 -0.011751388 5.8967718e-23)
(0.71480401 -0.01103481 -5.1523712e-22)
(0.72593192 -0.010363924 -8.0915965e-22)
(0.73686289 -0.0097361578 6.111833e-22)
(0.74754479 -0.0091601935 1.2517333e-23)
(0.75818359 -0.0086145266 3.0637022e-22)
(0.76826138 -0.0081801591 -2.2592293e-22)
(0.7793843 -0.007644849 -4.2742649e-22)
(0.7871823 -0.0077126719 1.2975551e-23)
(0.80382925 -0.0066162662 5.0910334e-22)
(0.29002193 -0.050254081 -2.5039038e-20)
(0.29147421 -0.054876797 5.2388248e-20)
(0.29777866 -0.057991309 1.1127979e-20)
(0.30559153 -0.059405905 -1.7636353e-20)
(0.31306054 -0.060349225 -2.9865482e-21)
(0.32073928 -0.061017612 2.1086172e-21)
(0.32895897 -0.061288378 -2.5520223e-21)
(0.33763858 -0.061181355 -5.0630325e-21)
(0.34672099 -0.060772108 -4.3236595e-21)
(0.35621061 -0.060109322 -1.305875e-20)
(0.36610117 -0.05922454 1.9977857e-20)
(0.37636982 -0.058147615 7.5301264e-21)
(0.38699068 -0.056907201 -1.752725e-20)
(0.39793729 -0.055528893 9.5878307e-21)
(0.4091812 -0.054035403 7.5057722e-21)
(0.42069225 -0.052447238 1.5665031e-22)
(0.43243947 -0.050783046 -2.4625782e-21)
(0.44439163 -0.049059792 -4.765402e-21)
(0.45651758 -0.047292909 -1.8225403e-21)
(0.46878659 -0.045496442 -1.6080144e-21)
(0.48116863 -0.043683152 -3.7402053e-21)
(0.49363467 -0.041864606 0)
(0.50615681 -0.040051238 -1.6569067e-21)
(0.5187085 -0.038252401 4.0518951e-21)
(0.53126465 -0.036476419 6.0046553e-21)
(0.54380172 -0.034730624 -8.7336181e-22)
(0.55629782 -0.033021397 -3.6914402e-21)
(0.56873273 -0.031354214 3.9395844e-21)
(0.58108795 -0.029733691 -1.8910324e-22)
(0.59334667 -0.028163631 4.1515096e-21)
(0.60549379 -0.026647078 -4.7781425e-22)
(0.61751591 -0.025186376 1.8938779e-21)
(0.62940122 -0.023783228 -1.0254594e-21)
(0.64113953 -0.022438757 5.4672645e-22)
(0.65272221 -0.021153575 -6.5317573e-22)
(0.6641421 -0.019927848 6.0897209e-22)
(0.67539353 -0.018761367 6.2481026e-22)
(0.68647226 -0.017653615 5.2682906e-22)
(0.69737541 -0.01660386 -1.2811888e-21)
(0.70810185 -0.01561119 9.1948577e-22)
(0.71865102 -0.014674782 -4.7262699e-22)
(0.7290271 -0.013793492 -1.6452872e-21)
(0.73922704 -0.012967795 2.1007059e-21)
(0.74927825 -0.012194597 -4.7646425e-23)
(0.75912883 -0.011485055 -2.4098276e-22)
(0.76897512 -0.010812165 -6.217382e-24)
(0.77831958 -0.01027792 -2.6853843e-22)
(0.7886927 -0.0096164582 -7.2732997e-22)
(0.79593801 -0.0097058833 6.8692809e-22)
(0.81157702 -0.0083500913 -5.6159029e-23)
(0.41281086 -0.053806036 -2.1045717e-20)
(0.4094718 -0.05948742 1.3671952e-20)
(0.4119131 -0.063131154 4.7181294e-21)
(0.41633963 -0.06478917 -8.6098755e-21)
(0.42018206 -0.066032108 1.340596e-20)
(0.4240827 -0.06702995 8.6251893e-21)
(0.42856217 -0.06760377 -1.3136332e-20)
(0.43355922 -0.067759954 -6.6087923e-21)
(0.43899927 -0.06757058 1.3723039e-20)
(0.44489651 -0.06708354 -1.777984e-20)
(0.45126066 -0.066331331 -1.494235e-20)
(0.4580773 -0.065344726 1.6431433e-20)
(0.46532485 -0.064153736 7.2118807e-21)
(0.4729804 -0.062786283 -6.1916753e-21)
(0.48101839 -0.061267987 -8.4230335e-22)
(0.48941066 -0.059622453 -3.1465052e-21)
(0.49812742 -0.057871538 4.3429428e-21)
(0.50713806 -0.05603548 3.7073212e-21)
(0.51641167 -0.054132975 -3.0150686e-21)
(0.52591743 -0.052181244 3.1097917e-21)
(0.53562497 -0.050196099 3.151297e-21)
(0.54550466 -0.048191997 -3.5483565e-21)
(0.55552786 -0.04618208 3.6372741e-22)
(0.56566714 -0.044178215 -3.1198526e-21)
(0.57589638 -0.042191029 9.0810906e-21)
(0.58619092 -0.04022995 6.9525584e-21)
(0.59652763 -0.038303243 1.2838332e-21)
(0.60688498 -0.036418064 -1.9126333e-21)
(0.61724303 -0.034580506 4.8600683e-21)
(0.62758351 -0.032795661 8.9710918e-21)
(0.63788976 -0.03106768 2.4975538e-21)
(0.64814671 -0.029399848 4.1158878e-21)
(0.65834089 -0.027794652 2.2937901e-21)
(0.66846034 -0.02625386 9.6689251e-22)
(0.67849463 -0.024778601 -2.2787032e-22)
(0.68843475 -0.023369449 3.4716807e-21)
(0.69827314 -0.022026507 7.7404634e-22)
(0.70800365 -0.020749488 3.4400947e-22)
(0.71762145 -0.01953783 5.7829452e-23)
(0.72712345 -0.018390737 1.4355952e-21)
(0.73650713 -0.017307507 3.7744849e-23)
(0.74577459 -0.016287031 7.0959836e-22)
(0.754921 -0.015330141 -1.2689085e-22)
(0.76397088 -0.014433352 -5.1858656e-22)
(0.77287283 -0.013610246 -2.4599148e-22)
(0.78181209 -0.012828783 -6.6906058e-22)
(0.79031541 -0.01221034 3.0933692e-22)
(0.79982435 -0.011440511 -1.9445311e-22)
(0.80643395 -0.011552425 -3.9398727e-22)
(0.82090146 -0.0099735414 3.1693532e-22)
(0.54516657 -0.05262741 3.2443211e-21)
(0.53642961 -0.059429783 -1.9726301e-20)
(0.53410683 -0.063628731 -2.8586917e-21)
(0.5343966 -0.065731806 5.9158929e-21)
(0.53410837 -0.067512125 4.1182249e-21)
(0.53378561 -0.069044171 1.2371952e-21)
(0.53410262 -0.070121999 8.1641113e-21)
(0.53505904 -0.070753592 8.6793529e-21)
(0.53656091 -0.070997624 1.0358565e-20)
(0.53860994 -0.070892575 -1.2467278e-20)
(0.54122135 -0.070470148 -2.427735e-20)
(0.54438611 -0.069762047 -5.0802481e-21)
(0.54808325 -0.06879922 1.7679085e-20)
(0.55228923 -0.067611543 1.3998539e-20)
(0.55697818 -0.0662276 -5.5877815e-21)
(0.56212146 -0.064674412 4.2885858e-22)
(0.56768847 -0.06297744 -4.7172041e-21)
(0.57364754 -0.061160626 3.9427966e-21)
(0.57996657 -0.059246385 -2.9561581e-22)
(0.58661341 -0.057255585 -2.0726652e-21)
(0.5935563 -0.055207548 9.1753903e-21)
(0.6007641 -0.053120064 -6.8810826e-22)
(0.60820667 -0.051009409 7.8530711e-22)
(0.61585494 -0.048890357 -2.6678954e-22)
(0.62368118 -0.046776216 -4.7228213e-21)
(0.63165906 -0.044678854 4.6007465e-21)
(0.63976377 -0.042608745 1.7853541e-21)
(0.64797202 -0.040575024 -3.5809262e-21)
(0.65626217 -0.03858554 -4.0493217e-21)
(0.66461415 -0.036646932 -6.5520575e-21)