/*--------------------------------*- C++ -*----------------------------------*\
  =========                 |
  \\      /  F ield         | OpenFOAM: The Open Source CFD Toolbox
   \\    /   O peration     | Website:  https://openfoam.org
    \\  /    A nd           | Version:  6
     \\/     M anipulation  |
\*---------------------------------------------------------------------------*/
FoamFile
{
    version     2.0;
    format      ascii;
    class       volScalarField;
    location    "328";
    object      pMean;
}
// * * * * * * * * * * * * * * * * * * * * * * * * * * * * * * * * * * * * * //

dimensions      [0 2 -2 0 0 0 0];

internalField   nonuniform List<scalar> 
9200
(
-0.38769878
-0.37598562
-0.36554334
-0.35630205
-0.34726786
-0.33844855
-0.32992518
-0.32166361
-0.31359432
-0.30564422
-0.29774004
-0.28981325
-0.28180712
-0.27368387
-0.26543499
-0.25709869
-0.24875424
-0.2404917
-0.23332522
-0.23149387
-0.40586297
-0.39169976
-0.37931765
-0.36855189
-0.35813487
-0.34804294
-0.33834756
-0.32898425
-0.31985218
-0.31085299
-0.30189464
-0.29289706
-0.28379971
-0.27456729
-0.26519502
-0.25571216
-0.24615295
-0.23652098
-0.2274943
-0.22122378
-0.42439821
-0.40776943
-0.39349816
-0.38128007
-0.36953482
-0.35818931
-0.34729416
-0.33674755
-0.32641626
-0.31618146
-0.30594221
-0.29562085
-0.28516951
-0.27457279
-0.26384719
-0.25303636
-0.24218346
-0.23130079
-0.22078692
-0.21175603
-0.44285807
-0.42378908
-0.40769703
-0.3940882
-0.38103269
-0.3683921
-0.35618912
-0.3442852
-0.33252362
-0.32078136
-0.30897
-0.29703819
-0.28497429
-0.27280361
-0.2605812
-0.24838147
-0.23627423
-0.22430011
-0.21272707
-0.20229935
-0.4605998
-0.43919968
-0.42140585
-0.40648262
-0.39212391
-0.37811601
-0.36445468
-0.35097642
-0.33752255
-0.32399355
-0.31034333
-0.29657473
-0.28273469
-0.26890377
-0.25518248
-0.24167689
-0.22847855
-0.21564572
-0.20336702
-0.19215391
-0.47678688
-0.45326995
-0.43395155
-0.41780217
-0.40213118
-0.38665079
-0.37134354
-0.35604769
-0.3406374
-0.32507312
-0.30938352
-0.29364943
-0.27798891
-0.26253883
-0.24743666
-0.23280562
-0.21873978
-0.20529303
-0.19259102
-0.1809739
-0.49040372
-0.46510261
-0.44449799
-0.4272214
-0.41021622
-0.39313769
-0.37598415
-0.3586372
-0.34104847
-0.32327729
-0.30545432
-0.287751
-0.27035452
-0.25344436
-0.23717408
-0.22166067
-0.20697748
-0.1931524
-0.18025109
-0.16847667
-0.50027841
-0.47365874
-0.45207936
-0.43379861
-0.41544532
-0.39665292
-0.37747923
-0.35790173
-0.3379976
-0.31795902
-0.29803473
-0.27848519
-0.25955117
-0.24143094
-0.22426816
-0.20814993
-0.19310979
-0.17913568
-0.1662346
-0.15449401
-0.50506281
-0.47765532
-0.45540092
-0.43618979
-0.41643639
-0.39581557
-0.37450493
-0.35263461
-0.33044571
-0.30827733
-0.28648831
-0.26540456
-0.24528916
-0.22632793
-0.20862866
-0.19223047
-0.1771169
-0.16323218
-0.15052875
-0.13899488
-0.50340469
-0.4756707
-0.45290917
-0.43272479
-0.41146599
-0.38893299
-0.36548797
-0.34145797
-0.31725987
-0.29336107
-0.27019207
-0.24809827
-0.22732244
-0.20800548
-0.19019964
-0.17388809
-0.15900533
-0.14545794
-0.1331511
-0.12198652
-0.27166505
-0.27617695
-0.27843237
-0.27895991
-0.27850893
-0.2772569
-0.27529244
-0.27270708
-0.26957456
-0.26595112
-0.26188246
-0.25740767
-0.25256137
-0.24737513
-0.2418787
-0.23610252
-0.23007906
-0.22383043
-0.21735693
-0.21074703
-0.27450163
-0.27858598
-0.28052845
-0.28083491
-0.28019983
-0.27879198
-0.27669797
-0.27400529
-0.2707839
-0.26708706
-0.26295792
-0.25843335
-0.253546
-0.24832532
-0.2427984
-0.23699453
-0.23095362
-0.22469611
-0.21811448
-0.21118236
-0.28002936
-0.28327945
-0.28461295
-0.28448708
-0.28349125
-0.28177868
-0.27943213
-0.27653123
-0.2731386
-0.26930158
-0.26505823
-0.26044098
-0.25547849
-0.25019624
-0.24461627
-0.23876484
-0.23269309
-0.22642046
-0.21964619
-0.2121066
-0.28799185
-0.29005039
-0.29050393
-0.28974266
-0.28821083
-0.28604194
-0.28331424
-0.28009675
-0.2764419
-0.27238873
-0.26796809
-0.26320599
-0.25812528
-0.25274551
-0.24708175
-0.24115481
-0.23502744
-0.22872392
-0.22169768
-0.21330984
-0.2980663
-0.29863907
-0.29797493
-0.29638796
-0.29414956
-0.29137235
-0.28813078
-0.2844818
-0.28046576
-0.27611199
-0.27144261
-0.26647495
-0.26122402
-0.2557022
-0.24991626
-0.24387847
-0.23765908
-0.2312958
-0.22398616
-0.21457426
-0.30991805
-0.30877613
-0.30679321
-0.30420734
-0.30110103
-0.29756764
-0.29368007
-0.2894834
-0.28500539
-0.28026311
-0.27526744
-0.27002604
-0.26454476
-0.2588273
-0.25287118
-0.24667731
-0.24031557
-0.23384309
-0.22623173
-0.21569283
-0.32324976
-0.32022111
-0.31675436
-0.31301826
-0.30889895
-0.30447401
-0.29981867
-0.29496582
-0.28992793
-0.28470912
-0.27930831
-0.27372148
-0.26794362
-0.26196868
-0.25578508
-0.24938208
-0.24282231
-0.23618547
-0.22828165
-0.21662688
-0.33783065
-0.33278628
-0.32770531
-0.3226967
-0.31744734
-0.31202212
-0.30649897
-0.30089798
-0.29521638
-0.28944341
-0.28356325
-0.27755731
-0.27140676
-0.26509343
-0.25859617
-0.25189566
-0.24505211
-0.23819124
-0.23007998
-0.21753916
-0.35349594
-0.34632816
-0.33952508
-0.33314587
-0.32667187
-0.32015419
-0.31367549
-0.30724261
-0.30083482
-0.29442349
-0.28797466
-0.28145124
-0.27481538
-0.26802884
-0.26104845
-0.25382819
-0.24639362
-0.23885339
-0.22997253
-0.21627865
-0.37013754
-0.36072878
-0.3520903
-0.34423634
-0.33643026
-0.32870924
-0.32116063
-0.31377599
-0.3065144
-0.29932798
-0.29216466
-0.28497095
-0.27769493
-0.27028638
-0.26269153
-0.25484881
-0.24670427
-0.23805663
-0.2272796
-0.21137121
-0.20326039
-0.19392993
-0.18461623
-0.1753908
-0.16619749
-0.15707725
-0.14808525
-0.13925727
-0.13062229
-0.12220839
-0.11404083
-0.10614096
-0.098526799
-0.091213403
-0.084212912
-0.077534631
-0.071185169
-0.065168575
-0.059486468
-0.05413817
-0.049120856
-0.044429719
-0.040058141
-0.035997875
-0.032239242
-0.028771327
-0.025582182
-0.022659031
-0.019988465
-0.017556637
-0.015349448
-0.013352717
-0.011552343
-0.0099344527
-0.0084855386
-0.0071925815
-0.0060431724
-0.005025606
-0.0041290581
-0.0033434936
-0.0026605304
-0.0020713188
-0.0015741884
-0.0011521639
-0.00084400231
-0.00053358426
-0.00058353126
1.427026e-05
-0.001771307
0.0026365045
-0.2044206
-0.19467374
-0.18524083
-0.17602437
-0.16680571
-0.15764713
-0.14862323
-0.13976605
-0.13110178
-0.12265915
-0.11446377
-0.10653687
-0.098896435
-0.091557596
-0.084532553
-0.077830663
-0.071458583
-0.065420408
-0.059717793
-0.054350084
-0.049314471
-0.044606151
-0.0402185
-0.036143256
-0.032370717
-0.028889937
-0.025688933
-0.022754887
-0.020074344
-0.017633413
-0.015417941
-0.013413696
-0.011606525
-0.0099825034
-0.008528072
-0.0072301606
-0.0060763109
-0.0050547698
-0.0041546666
-0.0033659213
-0.002680107
-0.0020883324
-0.0015888668
-0.0011647338
-0.00085441697
-0.00054240649
-0.00058863998
7.144963e-06
-0.0017580764
0.002607536
-0.2068134
-0.19618245
-0.18651441
-0.177358
-0.16810323
-0.15886941
-0.1497844
-0.14087056
-0.13214693
-0.12364451
-0.11539033
-0.10740553
-0.099708177
-0.092313762
-0.085234766
-0.078480752
-0.072058569
-0.065972475
-0.060224252
-0.054813337
-0.049736981
-0.04499041
-0.040566999
-0.036458465
-0.032655058
-0.029145769
-0.025918535
-0.022960445
-0.02025794
-0.017797018
-0.01556341
-0.013542764
-0.011720807
-0.010083492
-0.0086171406
-0.0073085655
-0.0061451945
-0.0051151647
-0.0042074999
-0.0034120178
-0.0027201918
-0.0021230358
-0.0016186949
-0.0011901689
-0.00087542556
-0.0005600773
-0.00059891377
-6.8811196e-06
-0.0017320055
0.0025501914
-0.2102263
-0.19818108
-0.18817183
-0.17920574
-0.16994795
-0.16062024
-0.15146469
-0.14248637
-0.13368829
-0.12510672
-0.11677271
-0.10870751
-0.10092954
-0.093455148
-0.086297556
-0.079466862
-0.072970367
-0.066812721
-0.060996018
-0.055519932
-0.050381885
-0.045577211
-0.041099343
-0.036940004
-0.03308941
-0.029536484
-0.026269061
-0.023274104
-0.020537914
-0.018046323
-0.015784895
-0.013739098
-0.011894475
-0.010236795
-0.0087521969
-0.0074273126
-0.0062493949
-0.0052064106
-0.00428722
-0.0034814823
-0.0027805174
-0.0021751914
-0.0016634615
-0.0012282829
-0.00090686256
-0.00058644995
-0.00061426022
-2.7628042e-05
-0.0016936474
0.0024656843
-0.21437446
-0.20035528
-0.18990539
-0.1813325
-0.17215945
-0.16274196
-0.15352716
-0.14450047
-0.1356329
-0.12696798
-0.11854564
-0.11038849
-0.10251544
-0.094944378
-0.08769
-0.080763477
-0.074172981
-0.067923908
-0.062018965
-0.056458312
-0.051239735
-0.046358835
-0.041809217
-0.037582699
-0.033669522
-0.030058572
-0.026737598
-0.023693435
-0.02091222
-0.018379596
-0.016080915
-0.014001421
-0.012126421
-0.010441446
-0.0089323922
-0.0075856543
-0.0063882512
-0.0053279224
-0.0043933088
-0.0035738564
-0.0028606782
-0.0022444411
-0.0017228505
-0.0012787981
-0.00094848735
-0.00062130695
-0.00063456471
-5.4803665e-05
-0.0016439008
0.0023558994
-0.21886156
-0.20238997
-0.19141625
-0.18347386
-0.17453564
-0.16506496
-0.15581619
-0.14677738
-0.13786859
-0.12913484
-0.12063013
-0.11238191
-0.10441028
-0.096735147
-0.089373556
-0.082338573
-0.075639851
-0.069284034
-0.063274878
-0.057613393
-0.052298034
-0.047324908
-0.042687993
-0.038379351
-0.034389362
-0.030706957
-0.027319853
-0.024214785
-0.021377735
-0.018794149
-0.016449147
-0.014327715
-0.012414886
-0.010695904
-0.0091563756
-0.0077824041
-0.0065607208
-0.005478784
-0.004524962
-0.0036884352
-0.0029600575
-0.0023302471
-0.0017963942
-0.0013413102
-0.00099995648
-0.00066434704
-0.00065967108
-8.8037024e-05
-0.0015839203
0.0022232881
-0.2232597
-0.2040837
-0.19247718
-0.18533377
-0.17685578
-0.16744328
-0.15819964
-0.14918907
-0.14028466
-0.13151569
-0.12294867
-0.11462127
-0.10655727
-0.098779125
-0.091307014
-0.084156906
-0.077340782
-0.070867183
-0.064741466
-0.05896596
-0.053540179
-0.048461061
-0.043723206
-0.039319128
-0.035239502
-0.031473421
-0.028008654
-0.024831889
-0.021928983
-0.019285196
-0.016885407
-0.014714326
-0.01275668
-0.01099739
-0.009421729
-0.0080154625
-0.0067649858
-0.0056574262
-0.0046808297
-0.0038240618
-0.0030776688
-0.0024317728
-0.0018833876
-0.0014152322
-0.0010607901
-0.00071517696
-0.00068937727
-0.00012692931
-0.0015150308
0.0020707248
-0.22729041
-0.20581852
-0.19330823
-0.18672416
-0.17890128
-0.16978178
-0.16062544
-0.15167094
-0.14281059
-0.13404625
-0.12544357
-0.11705313
-0.10890685
-0.10103099
-0.093449281
-0.086181393
-0.079242462
-0.072643582
-0.066392234
-0.060492525
-0.05494542
-0.049749006
-0.044898781
-0.040387927
-0.03620759
-0.032347163
-0.028794566
-0.025536515
-0.022558792
-0.019846493
-0.017384268
-0.015156543
-0.013147723
-0.011342378
-0.0097254145
-0.0082822212
-0.0069988159
-0.0058619516
-0.0048593075
-0.0039793892
-0.0032123902
-0.0025480937
-0.0019830769
-0.0014999613
-0.0011305185
-0.00077343644
-0.00072353645
-0.00017114723
-0.0014386992
0.0019014635
-0.22861458
-0.20780467
-0.19457462
-0.18757321
-0.18023737
-0.17169926
-0.16281857
-0.15398977
-0.14523048
-0.13653547
-0.12795358
-0.11954341
-0.11134833
-0.10340075
-0.095728658
-0.08835605
-0.081302127
-0.074581416
-0.068204297
-0.062177355
-0.056503635
-0.051182941
-0.046212148
-0.041585522
-0.037295027
-0.033330643
-0.029680671
-0.026332038
-0.023270584
-0.020481342
-0.017948799
-0.015657137
-0.013590453
-0.011732969
-0.010069204
-0.0085841476
-0.0072634036
-0.0060933103
-0.0050611365
-0.0041549811
-0.0033646364
-0.0026794994
-0.0020956485
-0.0015955926
-0.0012091798
-0.00083905347
-0.0007622512
-0.00022017366
-0.0013568086
0.0017197447
-0.21890329
-0.20713284
-0.19579171
-0.18737418
-0.17997741
-0.17222521
-0.16395816
-0.15549995
-0.14702937
-0.138574
-0.13016363
-0.12185712
-0.11371064
-0.10576738
-0.098063061
-0.090628722
-0.083490177
-0.076667744
-0.07017673
-0.064027913
-0.058227878
-0.05277937
-0.047681661
-0.042930936
-0.03852066
-0.034441944
-0.030683901
-0.027233999
-0.02407839
-0.021202225
-0.018589954
-0.016225593
-0.01409298
-0.012175995
-0.010458771
-0.0089258664
-0.0075624379
-0.0063543633
-0.0052884503
-0.0043523369
-0.0035353596
-0.0028264712
-0.0022211926
-0.0017018712
-0.0012963058
-0.00091121367
-0.0008050725
-0.00027207111
-0.0012718079
0.0015311905
-0.19702147
-0.20109488
-0.19541014
-0.18622006
-0.17840938
-0.17107621
-0.16326347
-0.15511276
-0.14688812
-0.13865391
-0.13043221
-0.12227758
-0.11425018
-0.10639779
-0.098759521
-0.091369582
-0.084256948
-0.077444906
-0.07095144
-0.064789729
-0.058968499
-0.053492377
-0.048362282
-0.043575808
-0.039127626
-0.035009854
-0.031212445
-0.027723542
-0.024529838
-0.0216169
-0.018969484
-0.016571821
-0.014407885
-0.012461626
-0.010717187
-0.0091590962
-0.0077724392
-0.0065429939
-0.0054574408
-0.0045032754
-0.0036696411
-0.0029453618
-0.0023254742
-0.0017927545
-0.0013721695
-0.00097682797
-0.00084208571
-0.00032365059
-0.001183746
0.0013440275
-0.18622599
-0.19140799
-0.18755276
-0.17859474
-0.17113274
-0.16458455
-0.15760237
-0.15019348
-0.14265009
-0.13504837
-0.12740123
-0.11975922
-0.11218512
-0.10473068
-0.097438866
-0.090347983
-0.083491342
-0.076896516
-0.070585596
-0.064575645
-0.058879033
-0.053503766
-0.048453865
-0.043729761
-0.03932869
-0.035245088
-0.031470973
-0.027996328
-0.024809464
-0.021897367
-0.019246022
-0.01684072
-0.014666333
-0.012707571
-0.010949206
-0.0093762829
-0.0079743007
-0.0067293624
-0.0056283855
-0.0046590492
-0.0038105454
-0.0030718657
-0.0024375567
-0.0018914494
-0.0014545761
-0.0010494589
-0.00088125865
-0.00038408427
-0.0010831502
0.0011414424
-0.17718509
-0.1798542
-0.17722739
-0.17001938
-0.16344468
-0.15762136
-0.15143283
-0.14477907
-0.13792223
-0.13095797
-0.12390152
-0.11679751
-0.10970762
-0.10268558
-0.095776661
-0.089021786
-0.082457403
-0.076114539
-0.070018815
-0.064190802
-0.058646305
-0.053396626
-0.048448912
-0.043806516
-0.039469383
-0.035434434
-0.031695948
-0.028245948
-0.025074569
-0.022170413
-0.019520885
-0.017112511
-0.014931228
-0.012962653
-0.011192325
-0.0096059192
-0.0081894528
-0.0069294418
-0.0058131142
-0.0048283957
-0.0039645673
-0.0032108407
-0.0025612391
-0.002000796
-0.0015461831
-0.0011303948
-0.00092524935
-0.00045138586
-0.00097331734
0.00091883212
-0.16720343
-0.16737416
-0.16523317
-0.16011332
-0.15479512
-0.14974475
-0.1443732
-0.1385541
-0.1324614
-0.12619596
-0.11978851
-0.11328185
-0.1067344
-0.10020064
-0.093727845
-0.087359135
-0.081133656
-0.075085612
-0.069244034
-0.063632992
-0.058271793
-0.053175189
-0.04835365
-0.043813689
-0.039558221
-0.035586922
-0.031896608
-0.028481609
-0.025334142
-0.022444668
-0.019802241
-0.017394831
-0.015209628
-0.013233326
-0.011452376
-0.0098532191
-0.0084225014
-0.0071472477
-0.0060150759
-0.0050142224
-0.0041341068
-0.0033641955
-0.0026980056
-0.0021217834
-0.0016477877
-0.0012195461
-0.00097510426
-0.00052263963
-0.00086191059
0.00068643361
-0.15634361
-0.15474375
-0.15267397
-0.14927739
-0.14527218
-0.14105466
-0.1365048
-0.13155069
-0.12627412
-0.12075816
-0.11504871
-0.10919109
-0.10323959
-0.097247622
-0.091263509
-0.085331792
-0.079493552
-0.073785582
-0.068239939
-0.062883965
-0.057740378
-0.052827388
-0.048158891
-0.043744735
-0.039591018
-0.035700425
-0.032072574
-0.02870438
-0.025590415
-0.022723266
-0.020093887
-0.017691926
-0.015506046
-0.013524212
-0.011733964
-0.010122663
-0.0086777175
-0.0073867762
-0.0062379431
-0.0052198425
-0.0043220969
-0.003534463
-0.002850003
-0.0022561202
-0.0017608197
-0.0013176938
-0.0010321178
-0.00059694325
-0.00075487216
0.00045238882
-0.1443058
-0.14200174
-0.14009381
-0.13798169
-0.13516326
-0.13180614
-0.12806616
-0.12395597
-0.11949781
-0.11474764
-0.10975858
-0.10457767
-0.099254825
-0.09384106
-0.08838454
-0.082930155
-0.077519794
-0.072191831
-0.066980572
-0.061916042
-0.057023937
-0.05232564
-0.047838317
-0.043575096
-0.0395453
-0.035754723
-0.03220594
-0.028898636
-0.025829948
-0.022994811
-0.020386301
-0.017995968
-0.015814152
-0.013830291
-0.012033194
-0.010411309
-0.0089529536
-0.0076465288
-0.0064807366
-0.0054446797
-0.0045282648
-0.0037215808
-0.0030173178
-0.0024039426
-0.0018855304
-0.001424886
-0.0010970582
-0.00067357991
-0.00065808163
0.00022529394
-0.13140918
-0.12929366
-0.1277725
-0.12658566
-0.12474563
-0.12221916
-0.11926007
-0.11594637
-0.11227613
-0.10827944
-0.10400798
-0.099510077
-0.094830385
-0.090015056
-0.085110849
-0.080162151
-0.075210614
-0.070295039
-0.065450962
-0.060710266
-0.056100958
-0.051647071
-0.047368657
-0.043281866
-0.039399092
-0.035729182
-0.032277682
-0.029047122
-0.026037323
-0.023245715
-0.020667668
-0.01829681
-0.016125349
-0.014144372
-0.012344136
-0.010714336
-0.0092443497
-0.0079234676
-0.0067411093
-0.0056869574
-0.0047512955
-0.0039245949
-0.0031992825
-0.0025647698
-0.0020216684
-0.0015408304
-0.0011704351
-0.00075188045
-0.00057740146
1.4355936e-05
-0.11836143
-0.11686337
-0.11586046
-0.11534477
-0.11427516
-0.11250222
-0.11027232
-0.10769237
-0.10475717
-0.10147942
-0.097902694
-0.094073049
-0.090031759
-0.085819446
-0.081478334
-0.077051097
-0.07257843
-0.068098579
-0.063647215
-0.059257099
-0.054957719
-0.050775062
-0.046731494
-0.042845746
-0.039132958
-0.035604807
-0.032269682
-0.029132905
-0.02619699
-0.023461925
-0.02092547
-0.018583458
-0.016430102
-0.014458295
-0.012659892
-0.011025987
-0.0095471652
-0.0082137393
-0.0070159717
-0.0059442315
-0.0049892819
-0.0041420344
-0.0033947824
-0.0027377553
-0.0021686692
-0.0016650654
-0.0012525359
-0.00083144564
-0.00051791696
-0.00017168583
-0.10569463
-0.10488731
-0.10442266
-0.10441657
-0.10394968
-0.10283027
-0.10125839
-0.099340978
-0.097075991
-0.094466712
-0.091546805
-0.088356753
-0.084933263
-0.081312477
-0.077532004
-0.073630358
-0.069645933
-0.06561566
-0.061574462
-0.057555004
-0.053587352
-0.049698648
-0.045912892
-0.042250811
-0.038729829
-0.035364088
-0.032164555
-0.029139166
-0.026293026
-0.023628641
-0.021146173
-0.018843716
-0.016717576
-0.014762553
-0.012972224
-0.01133921
-0.0098554328
-0.0085123533
-0.0073011971
-0.006213128
-0.0052394958
-0.0043717182
-0.0036020965
-0.0029215631
-0.0023255591
-0.0017969069
-0.0013433288
-0.00091218534
-0.00048318582
-0.00032574869
-0.09368663
-0.093482811
-0.093503884
-0.093899685
-0.093907864
-0.093337783
-0.09234118
-0.091010454
-0.089345592
-0.087345067
-0.085033319
-0.082443627
-0.079607314
-0.07655538
-0.073320877
-0.069938157
-0.066441802
-0.062866194
-0.059244718
-0.055609133
-0.051989222
-0.048412465
-0.044903753
-0.041485167
-0.038175846
-0.03499194
-0.031946615
-0.029050138
-0.02631
-0.023731088
-0.021315897
-0.019064758
-0.016976087
-0.015046651
-0.013271824
-0.011645849
-0.010162087
-0.0088132562
-0.0075916554
-0.0064893461
-0.0054983702
-0.004610723
-0.0038188605
-0.0031143294
-0.0024909195
-0.0019354085
-0.0014423957
-0.0009942333
-0.00047468098
-0.00044345993
-0.082473025
-0.08273915
-0.083156529
-0.083867246
-0.08424855
-0.084128423
-0.083620123
-0.082797711
-0.081660508
-0.080203943
-0.078444658
-0.076408398
-0.074120587
-0.071606868
-0.068895141
-0.066015323
-0.062998116
-0.059874392
-0.056674957
-0.053429898
-0.050167969
-0.04691622
-0.043699692
-0.040541139
-0.037460816
-0.034476345
-0.031602649
-0.028851956
-0.02623385
-0.023755387
-0.021421239
-0.01923388
-0.017193798
-0.015299718
-0.013548841
-0.011937086
-0.010459329
-0.0091096291
-0.007881449
-0.0067678404
-0.0057616361
-0.0048554842
-0.004042139
-0.0033137073
-0.0026629164
-0.0020793535
-0.001548904
-0.0010777999
-0.00049150531
-0.00052391872
-0.072111311
-0.072717227
-0.073432529
-0.074378748
-0.075045936
-0.07528425
-0.075178427
-0.074785568
-0.074102708
-0.073122713
-0.071855737
-0.070320438
-0.068536232
-0.066523339
-0.064304399
-0.061904419
-0.059349873
-0.056667946
-0.053886175
-0.051032132
-0.048132828
-0.045214195
-0.042300728
-0.039415181
-0.036578298
-0.033808612
-0.031122306
-0.02853314
-0.026052441
-0.023689145
-0.021449884
-0.019339117
-0.017359293
-0.015511041
-0.013793369
-0.012203885
-0.010739016
-0.0093942195
-0.0081641918
-0.0070430515
-0.0060245103
-0.0051019433
-0.004268539
-0.0035169475
-0.0028393571
-0.0022272579
-0.0016616043
-0.0011629952
-0.00053046967
-0.00056994628
-0.062611372
-0.063448307
-0.064371155
-0.065480314
-0.066356506
-0.066870649
-0.067086235
-0.067046318
-0.066745324
-0.066173844
-0.065336653
-0.06424612
-0.062915952
-0.061361087
-0.059598992
-0.057649695
-0.055535095
-0.053278365
-0.05090352
-0.048435055
-0.045897555
-0.043315189
-0.040711265
-0.038107897
-0.035525703
-0.032983546
-0.030498343
-0.02808492
-0.025755942
-0.023521882
-0.021391056
-0.019369692
-0.017462041
-0.01567052
-0.01399588
-0.01243739
-0.010993026
-0.00965967
-0.0084332991
-0.0073091566
-0.0062819068
-0.0053457228
-0.0044943507
-0.0037210018
-0.0030177658
-0.002377385
-0.0017788591
-0.0012496679
-0.00058656851
-0.00058766538
-0.05395678
-0.054939238
-0.055993781
-0.057202678
-0.058220941
-0.058937932
-0.059400996
-0.059642031
-0.059653295
-0.059423577
-0.058953296
-0.058249482
-0.057320732
-0.056177085
-0.054831111
-0.053298003
-0.051595065
-0.049741227
-0.047756709
-0.045662648
-0.043480724
-0.041232767
-0.038940322
-0.036624273
-0.03430452
-0.031999686
-0.029726881
-0.027501505
-0.025337114
-0.023245337
-0.021235846
-0.019316367
-0.01749274
-0.015769014
-0.014147566
-0.012629253
-0.011213568
-0.0098988098
-0.0086822548
-0.0075603095
-0.0065286487
-0.0055823074
-0.0047156989
-0.0039226398
-0.0031954732
-0.0025277788
-0.0018987105
-0.0013373058
-0.00065378873
-0.00058540996
-0.04611533
-0.047177852
-0.048303727
-0.049560343
-0.05066438
-0.05152153
-0.052166805
-0.052623432
-0.052882221
-0.052930791
-0.052766216
-0.052391195
-0.05180999
-0.051028332
-0.050054355
-0.048898759
-0.047574431
-0.046096096
-0.044480042
-0.042743836
-0.04090598
-0.038985551
-0.037001841
-0.034973987
-0.032920631
-0.030859614
-0.028807704
-0.026780371
-0.024791597
-0.022853746
-0.020977477
-0.019171699
-0.017443582
-0.015798596
-0.014240586
-0.012771884
-0.011393422
-0.010104881
-0.0089048249
-0.0077908397
-0.00675965
-0.0058072067
-0.004928683
-0.0041185631
-0.0033697077
-0.0026763148
-0.0020189828
-0.001425024
-0.00072608384
-0.00057217287
-0.039044409
-0.040138174
-0.041289315
-0.042553044
-0.043697413
-0.044642595
-0.045414281
-0.0460291
-0.046477142
-0.046745527
-0.04682896
-0.046726814
-0.046439875
-0.045970283
-0.045322354
-0.044502786
-0.043520419
-0.042385989
-0.041111937
-0.039712203
-0.038201955
-0.036597278
-0.034914857
-0.033171663
-0.031384616
-0.029570284
-0.027744598
-0.0259226
-0.02411823
-0.022344144
-0.020611589
-0.018930305
-0.017308487
-0.015752772
-0.014268272
-0.012858632
-0.011526116
-0.010271705
-0.0090952147
-0.0079953995
-0.0069700522
-0.0060160794
-0.0051294894
-0.0043055008
-0.0035376797
-0.0028207643
-0.0021374112
-0.0015116358
-0.00079827523
-0.00055597736
-0.032695512
-0.033785335
-0.034927965
-0.036168635
-0.03731815
-0.038309481
-0.039161377
-0.039885562
-0.040472029
-0.04090801
-0.04118672
-0.041305157
-0.04126149
-0.04105504
-0.040687003
-0.040160686
-0.039481383
-0.038656216
-0.037694035
-0.036605278
-0.035401778
-0.034096528
-0.032703411
-0.031236932
-0.029711933
-0.0281433
-0.026545683
-0.024933244
-0.023319422
-0.021716728
-0.02013658
-0.018589172
-0.017083385
-0.015626732
-0.014225344
-0.012883983
-0.011606086
-0.010393826
-0.0092481945
-0.0081690761
-0.0071553251
-0.0062048251
-0.0053144723
-0.0044802832
-0.0036966506
-0.0029588645
-0.00225177
-0.001595776
-0.000866645
-0.00054261986
-0.027017637
-0.028079279
-0.02918977
-0.030386151
-0.031514761
-0.032519792
-0.033414884
-0.034208191
-0.034890095
-0.035448423
-0.03587565
-0.03616723
-0.036319519
-0.036329775
-0.036196791
-0.035921152
-0.035505186
-0.034952898
-0.034269929
-0.033463489
-0.032542237
-0.031516117
-0.030396158
-0.02919425
-0.027922914
-0.026595046
-0.025223663
-0.02382165
-0.022401532
-0.020975258
-0.01955401
-0.018148047
-0.016766578
-0.015417673
-0.014108199
-0.012843798
-0.011628888
-0.010466684
-0.0093592423
-0.0083075083
-0.0073113624
-0.0063696621
-0.0054802201
-0.0046398995
-0.0038439892
-0.0030883874
-0.0023599783
-0.0016760345
-0.00092908122
-0.00053512023
-0.021959582
-0.022977404
-0.024040301
-0.025178544
-0.026268
-0.027262613
-0.02817229
-0.029002623
-0.02974472
-0.030387348
-0.030922829
-0.031345767
-0.031651397
-0.031835603
-0.031895459
-0.031829489
-0.031637677
-0.031321461
-0.030883748
-0.030328904
-0.029662703
-0.028892223
-0.028025717
-0.027072451
-0.026042518
-0.024946633
-0.023795921
-0.022601685
-0.021375189
-0.020127447
-0.018869026
-0.017609876
-0.016359175
-0.01512521
-0.013915284
-0.012735653
-0.011591488
-0.01048686
-0.0094247475
-0.008407051
-0.0074346115
-0.0065072291
-0.005623634
-0.0047815621
-0.0039772286
-0.0032072081
-0.0024601655
-0.0017510623
-0.00098480036
-0.00053395696
-0.017471804
-0.018436784
-0.019443042
-0.020515205
-0.021553691
-0.022520867
-0.023423899
-0.02426656
-0.02504088
-0.025736783
-0.026346859
-0.026865396
-0.027287078
-0.027606995
-0.027821111
-0.027926504
-0.027921412
-0.027805274
-0.027578779
-0.027243904
-0.026803912
-0.026263309
-0.025627773
-0.024904052
-0.024099833
-0.023223587
-0.022284398
-0.021291778
-0.020255469
-0.019185246
-0.018090735
-0.01698123
-0.015865538
-0.014751834
-0.013647545
-0.012559256
-0.011492641
-0.010452414
-0.0094422993
-0.0084650173
-0.0075222713
-0.006614743
-0.0057420508
-0.0049028037
-0.0040941431
-0.0033133797
-0.0025507064
-0.0018196386
-0.0010338285
-0.00053787219
-0.013507499
-0.014415594
-0.015361093
-0.016363859
-0.017344745
-0.018273355
-0.019154821
-0.019991623
-0.020776794
-0.021501511
-0.022158911
-0.022743354
-0.023249398
-0.023671806
-0.024005935
-0.024247947
-0.024394883
-0.024444718
-0.024396438
-0.02425011
-0.024006912
-0.023669143
-0.023240198
-0.022724518
-0.022127512
-0.021455457
-0.020715369
-0.019914861
-0.019061984
-0.018165061
-0.017232512
-0.016272693
-0.015293732
-0.014303386
-0.013308904
-0.012316917
-0.011333339
-0.010363295
-0.0094110572
-0.0084800014
-0.0075725672
-0.0066902271
-0.0058334289
-0.0050016266
-0.0041928647
-0.003405229
-0.0026302466
-0.0018807118
-0.0010764864
-0.00054485488
-0.01002408
-0.010874843
-0.011759091
-0.012692604
-0.013613275
-0.014496891
-0.015347057
-0.016165311
-0.01694569
-0.017680631
-0.01836397
-0.018990396
-0.01955464
-0.02005148
-0.020476056
-0.020824052
-0.02109177
-0.021276199
-0.021375102
-0.021387096
-0.021311716
-0.021149452
-0.02090176
-0.020571061
-0.020160704
-0.019674916
-0.019118715
-0.018497817
-0.017818517
-0.017087553
-0.016311967
-0.015498954
-0.01465572
-0.013789336
-0.012906602
-0.012013923
-0.011117199
-0.010221728
-0.0093321178
-0.0084522187
-0.0075850566
-0.0067327783
-0.0058965757
-0.0050766928
-0.0042720335
-0.0034814738
-0.0026977433
-0.0019334358
-0.0011130612
-0.00055293691
-0.0069831409
-0.0077788063
-0.0086040545
-0.0094711367
-0.010332161
-0.011168176
-0.011981609
-0.012773292
-0.013538208
-0.014269987
-0.01496323
-0.015613097
-0.016214679
-0.016763003
-0.017253274
-0.017681025
-0.018042189
-0.018333164
-0.018550904
-0.018693002
-0.018757764
-0.018744266
-0.018652399
-0.018482887
-0.018237298
-0.017918025
-0.01752825
-0.017071881
-0.016553482
-0.015978176
-0.015351534
-0.014679456
-0.013968048
-0.013223487
-0.012451899
-0.01165923
-0.01085113
-0.010032839
-0.0092090945
-0.0083840295
-0.0075610933
-0.0067429712
-0.0059314914
-0.0051276091
-0.0043310257
-0.0035413949
-0.0027525602
-0.0019772403
-0.0011437218
-0.00056062945
-0.004351936
-0.0050963295
-0.0058665456
-0.006671728
-0.0074758343
-0.0082643759
-0.0090388508
-0.0097995413
-0.010542277
-0.011261779
-0.011953404
-0.012612843
-0.013235648
-0.01381723
-0.01435304
-0.014838694
-0.015270025
-0.015643151
-0.015954553
-0.016201156
-0.016380408
-0.016490341
-0.016529633
-0.016497654
-0.016394492
-0.016220973
-0.015978655
-0.015669806
-0.015297368
-0.014864897
-0.014376489
-0.013836696
-0.013250421
-0.012622814
-0.011959156
-0.011264747
-0.010544789
-0.0098042671
-0.0090478474
-0.0082797654
-0.0075037264
-0.0067228092
-0.005939356
-0.0051549357
-0.0043699689
-0.0035848488
-0.0027944608
-0.0020118227
-0.0011685285
-0.00056698684
-0.0021046891
-0.0028032617
-0.003524064
-0.0042735926
-0.0050256155
-0.0057693721
-0.0065056116
-0.0072341737
-0.0079516185
-0.0086536242
-0.0093362492
-0.0099957149
-0.010628062
-0.011229145
-0.011794767
-0.012320763
-0.012803056
-0.013237703
-0.01362097
-0.013949399
-0.014219884
-0.014429738
-0.014576753
-0.014659263
-0.014676188
-0.01462707
-0.0145121
-0.01433212
-0.014088624
-0.013783724
-0.013420119
-0.013001038
-0.012530164
-0.012011562
-0.011449577
-0.010848739
-0.010213655
-0.0095489019
-0.0088589099
-0.0081478545
-0.0074195423
-0.0066773026
-0.0059238637
-0.0051612987
-0.0043906538
-0.0036129988
-0.0028241841
-0.0020375947
-0.0011878505
-0.00057169468
-0.00021656445
-0.0008748467
-0.0015521634
-0.0022526281
-0.0029580747
-0.0036608531
-0.0043611078
-0.0050583076
-0.0057496194
-0.0064315346
-0.0071007294
-0.0077539152
-0.0083876015
-0.0089980912
-0.0095815697
-0.010134168
-0.010652002
-0.011131213
-0.011568027
-0.011958812
-0.012300144
-0.012588875
-0.012822187
-0.012997664
-0.013113339
-0.013167753
-0.013159989
-0.013089705
-0.012957154
-0.012763186
-0.012509238
-0.01219731
-0.011829925
-0.011410069
-0.010941126
-0.0104268
-0.0098710204
-0.009277843
-0.0086513441
-0.0079955077
-0.0073141085
-0.0066105952
-0.0058879583
-0.0051486609
-0.0043942715
-0.0036264535
-0.0028419308
-0.0020544522
-0.0012014524
-0.00057430475
0.00130917
0.00068368836
4.2143089e-05
-0.00061782885
-0.0012844679
-0.0019525645
-0.0026217675
-0.003291248
-0.0039586591
-0.0046211512
-0.0052759119
-0.0059200719
-0.0065505537
-0.0071640666
-0.0077571631
-0.0083262817
-0.0088677748
-0.0093779423
-0.0098530755
-0.010289508
-0.010683669
-0.011032142
-0.011331724
-0.011579488
-0.011772836
-0.011909567
-0.01198792
-0.012006623
-0.011964931
-0.011862651
-0.011700152
-0.011478371
-0.011198795
-0.010863435
-0.01047478
-0.010035732
-0.0095495425
-0.0090197161
-0.0084499194
-0.0078438706
-0.0072052238
-0.0065374488
-0.0058436932
-0.0051267044
-0.0043884661
-0.0036311365
-0.0028522001
-0.0020657166
-0.0012116735
-0.00057601467
0.002514563
0.001916083
0.0013038354
0.00067707523
4.2562041e-05
-0.00059644382
-0.0012392092
-0.0018846562
-0.0025308063
-0.0031753233
-0.0038158005
-0.0044497071
-0.0050743052
-0.0056866461
-0.006283602
-0.0068618921
-0.0074181033
-0.0079487158
-0.0084501372
-0.0089187428