/*--------------------------------*- C++ -*----------------------------------*\
  =========                 |
  \\      /  F ield         | OpenFOAM: The Open Source CFD Toolbox
   \\    /   O peration     | Website:  https://openfoam.org
    \\  /    A nd           | Version:  6
     \\/     M anipulation  |
\*---------------------------------------------------------------------------*/
FoamFile
{
    version     2.0;
    format      ascii;
    class       volVectorField;
    location    "218";
    object      U_0;
}
// * * * * * * * * * * * * * * * * * * * * * * * * * * * * * * * * * * * * * //

dimensions      [0 1 -1 0 0 0 0];

internalField   nonuniform List<vector> 
9200
(
(0.0010393462 0.0014199822 -5.9201841e-20)
(0.013676067 -0.0020583667 4.6042532e-20)
(0.038313167 -0.005866568 -3.8501735e-20)
(0.072274438 -0.0097635051 -6.0257749e-20)
(0.11376474 -0.013490029 1.8826964e-20)
(0.16158089 -0.016605658 3.2743879e-20)
(0.21467148 -0.018817285 -1.2268008e-20)
(0.27206608 -0.01997389 9.2688613e-21)
(0.33285623 -0.020011222 1.6803426e-20)
(0.39616348 -0.018929051 1.4848072e-21)
(0.46111556 -0.016779814 -2.1456337e-20)
(0.52683687 -0.013657729 2.0670003e-20)
(0.59245068 -0.0096879946 -4.0422145e-20)
(0.65709131 -0.0050157715 -2.11339e-20)
(0.71992472 0.00020556786 5.9046523e-21)
(0.78017502 0.005824103 -2.5131673e-20)
(0.83717059 0.011712822 2.521712e-20)
(0.89046876 0.017918523 2.2243196e-20)
(0.93967071 0.024573425 -2.9930436e-22)
(0.98205186 0.028293395 -1.6692021e-21)
(0.0052521804 -0.001346273 -1.7059352e-20)
(0.026962501 -0.0089890261 3.9747709e-20)
(0.061670116 -0.014809763 2.3576295e-20)
(0.10629489 -0.019172268 -1.1569758e-19)
(0.15873565 -0.022213994 -1.2727088e-20)
(0.21753352 -0.023720682 7.3297079e-20)
(0.28137296 -0.023595092 -3.5476399e-20)
(0.34900601 -0.02186896 -8.3905569e-21)
(0.4192392 -0.018645519 3.428754e-20)
(0.49090944 -0.014080835 -4.3259579e-20)
(0.56287232 -0.0083759435 -3.0338481e-20)
(0.63400847 -0.0017665862 7.1921432e-20)
(0.70324329 0.0054884036 3.8294047e-20)
(0.76957581 0.013118642 -6.797655e-20)
(0.83211245 0.020852093 1.4623688e-20)
(0.89010037 0.028419716 -3.6733395e-20)
(0.94296916 0.035569684 -1.3777199e-20)
(0.9904323 0.042140897 7.097474e-20)
(1.032356 0.04771532 2.9641899e-20)
(1.0669348 0.0491397 -8.3478172e-20)
(0.010858427 -0.0040424157 3.6773456e-20)
(0.043953413 -0.015431076 2.504736e-21)
(0.090515435 -0.022552282 2.234171e-20)
(0.14711139 -0.026497357 9.8116823e-22)
(0.21134254 -0.027886295 -4.0773935e-20)
(0.28146767 -0.026795112 1.8576403e-20)
(0.3558704 -0.023382725 1.3420299e-20)
(0.43299007 -0.017921534 -5.0327703e-20)
(0.51132477 -0.010735647 5.7261858e-20)
(0.58942613 -0.0021838765 1.4256688e-20)
(0.66590915 0.0073479095 -5.430071e-20)
(0.73948035 0.017460267 -1.8237403e-20)
(0.80897597 0.027756566 9.0591601e-21)
(0.87340264 0.037859275 2.3444735e-20)
(0.93197362 0.047424046 -1.1362503e-20)
(0.98413367 0.056148974 2.7877721e-20)
(1.029574 0.063789174 -2.0188236e-20)
(1.0682645 0.070204392 -7.0123547e-20)
(1.1003322 0.075119377 -2.3796269e-20)
(1.1249112 0.076641237 4.8659665e-20)
(0.017957214 -0.0064221632 2.4508014e-20)
(0.064776995 -0.020694799 5.1039223e-20)
(0.12485228 -0.028060846 1.9881694e-20)
(0.19446966 -0.030464064 1.2990097e-20)
(0.27094931 -0.02909484 1.7275703e-20)
(0.35224879 -0.024388977 -4.7720172e-20)
(0.43643138 -0.01682597 -2.5646856e-20)
(0.52162008 -0.0069766681 0)
(0.60602895 0.0045670342 1.3920618e-20)
(0.68798706 0.017211733 -5.8523401e-21)
(0.76597517 0.030373923 -9.7934945e-20)
(0.83867447 0.043499633 -1.5774817e-20)
(0.90501525 0.056086618 6.5103197e-20)
(0.9642157 0.067704136 4.8442628e-22)
(1.0158035 0.078007715 -1.5725564e-21)
(1.0596155 0.086746793 2.195749e-20)
(1.0957773 0.093772228 -5.2647215e-21)
(1.12468 0.099065333 -6.102972e-20)
(1.1468647 0.10259708 -4.5851248e-20)
(1.1622957 0.10341385 6.9520525e-20)
(0.02657942 -0.008205688 -3.9194199e-21)
(0.08934402 -0.024033506 -5.1256306e-21)
(0.16430754 -0.030264987 5.6599408e-20)
(0.2475812 -0.029810018 1.8539325e-20)
(0.33624161 -0.024513026 -3.1955067e-20)
(0.42795125 -0.015239858 1.2163839e-20)
(0.52047262 -0.0028513608 2.6402862e-21)
(0.61166357 0.011737097 3.360917e-20)
(0.69954712 0.027640144 5.6599505e-21)
(0.78236837 0.044028771 -1.320474e-20)
(0.85865406 0.060147726 6.0154038e-20)
(0.92726911 0.075340472 -5.8009357e-20)
(0.98745676 0.089072863 -1.3216613e-19)
(1.0388531 0.10094902 -5.5773036e-21)
(1.0814725 0.11071709 8.3150772e-20)
(1.1156655 0.11826405 0)
(1.1420548 0.12360583 1.0118952e-20)
(1.1614668 0.12689056 -1.5459775e-20)
(1.1748179 0.12829871 -8.5994742e-21)
(1.1826673 0.12744916 2.0992259e-20)
(0.036666909 -0.0090895796 -5.4309119e-21)
(0.11731511 -0.024685357 4.3578745e-21)
(0.20811868 -0.028140177 -8.7629839e-21)
(0.30515702 -0.023414953 2.8472394e-20)
(0.40533539 -0.01307559 -2.9392664e-20)
(0.50607147 0.001522617 -1.6927023e-20)
(0.6049049 0.019095142 3.7364231e-20)
(0.69954959 0.038365256 4.759545e-21)
(0.78800392 0.058167647 -2.4436058e-20)
(0.86863405 0.077483006 6.9867559e-20)
(0.94023973 0.095458644 5.2393835e-22)
(1.0020956 0.11143157 -8.0444316e-20)
(1.0539569 0.12494291 0)
(1.0960273 0.1357375 3.9542117e-20)
(1.1288922 0.14374843 5.5236004e-21)
(1.1534278 0.14906893 -7.7566403e-20)
(1.170699 0.15191914 -1.9586921e-20)
(1.1818623 0.15262368 -1.2467635e-20)
(1.1880592 0.15152606 -1.4709399e-20)
(1.190146 0.14858493 4.0420579e-20)
(0.048058869 -0.0087674051 -1.7277958e-20)
(0.1480831 -0.021931993 -2.2198292e-21)
(0.2551407 -0.020797834 3.0380503e-20)
(0.36546384 -0.010412792 3.7484307e-20)
(0.47590421 0.0059015896 -1.9944733e-20)
(0.58374266 0.026269308 -6.9163031e-20)
(0.68644185 0.048977211 -2.7995797e-20)
(0.78176204 0.07241779 7.892921e-20)
(0.86790196 0.09521248 8.5778139e-21)
(0.94358916 0.11624961 -2.4873482e-20)
(1.0081258 0.13469827 1.3642212e-20)
(1.061387 0.15001555 -4.3194492e-21)
(1.1037693 0.16193659 0)
(1.1360975 0.17044428 2.7203483e-20)
(1.1595046 0.17572309 -7.9322415e-20)
(1.175302 0.1781037 -3.1475529e-20)
(1.184857 0.17800813 8.1054576e-20)
(1.1894921 0.17590945 -4.296985e-21)
(1.1904029 0.17225559 3.5561058e-21)
(1.188508 0.16719298 2.7111588e-20)
(0.060485251 -0.0069573639 -3.2414614e-20)
(0.18077773 -0.01517038 -8.162432e-20)
(0.30388929 -0.0075835263 2.5797737e-21)
(0.42642556 0.0097033572 7.0161811e-20)
(0.54535149 0.032631555 6.2424375e-20)
(0.65798101 0.058820044 -7.157452e-20)
(0.76190883 0.086176509 -2.8275075e-22)
(0.85518291 0.11285231 8.5522547e-20)
(0.93645346 0.13737837 4.8828069e-20)
(1.0050415 0.1586937 -5.4218407e-20)
(1.0609356 0.17613563 -9.2334215e-20)
(1.1047242 0.18941354 -3.1589826e-21)
(1.1374759 0.19855944 4.2127866e-20)
(1.1605873 0.20385857 -6.6056275e-21)
(1.1756247 0.2057702 -1.2868786e-20)
(1.1841776 0.20484919 1.9690806e-20)
(1.1877427 0.20167897 4.3880616e-20)
(1.1876453 0.19682588 -4.3859426e-20)
(1.1849954 0.19077884 -1.0232199e-19)
(1.180625 0.1837738 2.4566875e-20)
(0.073537216 -0.0034329735 -3.497975e-20)
(0.21422687 -0.0039890255 -1.7388611e-19)
(0.35251657 0.011839376 8.2103243e-20)
(0.48562798 0.037018337 9.2767515e-20)
(0.6108538 0.066835552 5.7970566e-20)
(0.72576727 0.098481178 8.6107094e-21)
(0.82834803 0.12959696 -1.0624009e-19)
(0.91718998 0.15824269 0)
(0.99162744 0.18302814 -6.8748588e-20)
(1.0517521 0.20311206 -1.5202409e-20)
(1.0983384 0.2181486 5.4703465e-20)
(1.1327008 0.22821082 1.0973379e-20)
(1.156511 0.2336926 -4.5613853e-20)
(1.1716067 0.23519947 -4.9081361e-20)
(1.1798204 0.23344336 2.428768e-20)
(1.182845 0.22915323 4.482289e-20)
(1.1821488 0.22300986 -5.5600406e-20)
(1.178936 0.21560823 -1.0751121e-19)
(1.1741468 0.20742224 -3.151363e-21)
(1.1684567 0.19871881 2.7046394e-20)
(0.086650447 0.001961386 -3.5448995e-21)
(0.24696019 0.011816634 8.7913242e-20)
(0.3988474 0.03749231 -1.6479244e-20)
(0.54040465 0.071218382 -8.4309149e-20)
(0.66949903 0.10778893 4.5164371e-20)
(0.78421953 0.14411543 4.9175453e-20)
(0.8831894 0.17775668 5.5356781e-21)
(0.9657787 0.2068849 -9.9502488e-20)
(1.0321763 0.23038802 -2.504878e-21)
(1.0833328 0.24781553 5.0503542e-20)
(1.120807 0.25926301 5.9854756e-21)
(1.1465558 0.2652362 -1.9717207e-20)
(1.1627107 0.26650533 -7.5704627e-20)
(1.1713765 0.26396622 -6.2554018e-21)
(1.1744762 0.2585243 4.3533352e-20)
(1.1736548 0.25101089 3.7022011e-20)
(1.1702383 0.24213395 1.979344e-20)
(1.1652402 0.23245875 -5.2994839e-20)
(1.1594014 0.22240418 1.2957451e-20)
(1.1532252 0.212238 8.265909e-20)
(-0.0012932615 0.0014346598 -1.1234445e-21)
(-0.0047459603 0.0031874148 2.0646968e-21)
(-0.010771359 0.0041359041 8.7950062e-22)
(-0.017754287 0.004539536 -2.441102e-21)
(-0.024740317 0.0045654166 -1.4114826e-21)
(-0.031299592 0.0043260385 1.5460011e-21)
(-0.037161326 0.0039035381 -6.8700811e-21)
(-0.042147441 0.0033577217 -5.9573039e-21)
(-0.046157775 0.0027313812 1.1171998e-20)
(-0.049146189 0.0020548306 -9.742749e-21)
(-0.051100653 0.0013493004 -1.9833025e-22)
(-0.052030442 0.00062942194 3.6673442e-21)
(-0.051957736 -9.4889453e-05 -6.3295587e-22)
(-0.050911881 -0.00081693035 2.2818744e-20)
(-0.048925777 -0.0015318447 3.040111e-22)
(-0.046035341 -0.0022351739 -4.0882872e-20)
(-0.042281798 -0.0029222679 7.5385617e-21)
(-0.037703443 -0.0035910384 2.3864111e-20)
(-0.032308696 -0.0042399864 -4.3852375e-20)
(-0.026156966 -0.0048211129 -2.7739205e-20)
(-0.0016521999 0.0041808663 -5.3716029e-21)
(-0.005397481 0.0092681381 1.0865438e-20)
(-0.011218509 0.012007444 -1.0191543e-20)
(-0.017658025 0.013153764 3.9229746e-21)
(-0.023856432 0.013195413 4.8121443e-21)
(-0.029433317 0.012462724 7.1324187e-22)
(-0.034152319 0.011197014 -2.250949e-20)
(-0.037860377 0.0095738967 -2.0370241e-21)
(-0.040474297 0.0077189871 2.0163541e-20)
(-0.041958921 0.0057212304 -5.0473601e-21)
(-0.042308949 0.0036428646 -2.176259e-20)
(-0.041537336 0.0015267128 4.897317e-21)
(-0.039667712 -0.00059830523 2.2635422e-20)
(-0.036729082 -0.0027127607 1.0308391e-20)
(-0.032752035 -0.0048026887 2.1854285e-20)
(-0.027769172 -0.0068555079 -1.9770728e-20)
(-0.021824798 -0.008858219 -2.1672944e-20)
(-0.014966274 -0.010804224 2.1184617e-20)
(-0.0071290227 -0.012679 2.6810365e-20)
(0.0018742884 -0.014317222 1.5854766e-20)
(-0.0023034292 0.0065602326 -4.3568689e-21)
(-0.0065392237 0.014480195 -5.6387544e-21)
(-0.011892131 0.018710543 3.0723934e-22)
(-0.017211099 0.02042818 1.0959875e-21)
(-0.021819141 0.020400323 6.6918405e-21)
(-0.02543104 0.019151665 1.0665169e-20)
(-0.027877231 0.017066287 -3.7227639e-21)
(-0.029053268 0.014423782 -1.8896165e-20)
(-0.028909036 0.011424352 6.5413173e-21)
(-0.02743105 0.0082099049 1.286257e-20)
(-0.024627714 0.0048797761 5.834085e-21)
(-0.02052011 0.0015022388 1.8159106e-20)
(-0.015135988 -0.001876863 1.7295915e-21)
(-0.0085054017 -0.0052272473 -3.3864529e-20)
(-0.00065689694 -0.0085276094 1.2020171e-21)
(0.0083810115 -0.011759108 -2.2139211e-20)
(0.01855686 -0.014904095 -2.4466302e-20)
(0.029802171 -0.017953751 4.581971e-20)
(0.042304952 -0.020855115 2.5349347e-20)
(0.056738557 -0.023247764 1.2239259e-22)
(-0.0031290276 0.0083689699 -5.283307e-21)
(-0.0078963987 0.018336513 -8.4815273e-21)
(-0.012438986 0.023587808 4.3593047e-21)
(-0.016026534 0.025609658 4.1463452e-21)
(-0.018235023 0.025382745 2.0105707e-21)
(-0.018912651 0.023589321 7.320996e-21)
(-0.017984717 0.020730272 9.3124783e-21)
(-0.01541671 0.017170377 -1.3511357e-21)
(-0.011207049 0.013171314 -1.1481947e-20)
(-0.0053752359 0.0089189315 -2.9071878e-20)
(0.0020481076 0.0045434374 6.1892234e-23)
(0.011026502 0.00013431135 4.0697822e-20)
(0.021522217 -0.0042489504 -1.8383172e-20)
(0.03349784 -0.0085675841 -1.2296088e-20)
(0.046920499 -0.012795545 5.5348959e-22)
(0.061760079 -0.016911854 3.2302643e-20)
(0.077952994 -0.020901668 -1.4829543e-20)
(0.095392242 -0.024763373 -5.3339183e-20)
(0.11439842 -0.028379715 4.5765008e-20)
(0.13634535 -0.031073092 3.3013168e-20)
(-0.0039704096 0.0094657321 -6.8788989e-22)
(-0.0090916579 0.020487792 -1.253474e-20)
(-0.012364471 0.026159086 -3.4144535e-20)
(-0.01355254 0.028143338 -5.7241624e-21)
(-0.01253324 0.027555006 -3.6222736e-21)
(-0.009316725 0.025188064 6.3051039e-21)
(-0.003945646 0.021627411 -4.6461965e-21)
(0.0035261262 0.017298959 -8.807028e-21)
(0.013036818 0.012508752 2.189971e-20)
(0.024521238 0.007474443 5.0567078e-21)
(0.037915533 0.0023489046 -2.5290294e-20)
(0.053157439 -0.0027627834 1.1078279e-20)
(0.070186859 -0.0077908736 0)
(0.088946571 -0.012691302 1.2089576e-20)
(0.10938543 -0.017436918 -9.7016177e-21)
(0.1314574 -0.022009895 -1.4337119e-20)
(0.15507405 -0.026408644 -1.5738961e-21)
(0.18006758 -0.030659418 -2.2181548e-21)
(0.2068534 -0.034576531 4.6147062e-20)
(0.23766357 -0.037019865 -1.0470125e-20)
(-0.0046450978 0.0097808622 -7.5356677e-21)
(-0.0096772508 0.02074788 2.4516399e-20)
(-0.01106438 0.026160977 -1.0499346e-20)
(-0.0090968328 0.027724444 -2.7469281e-20)
(-0.0039797214 0.026601694 -2.7548146e-20)
(0.0040961817 0.023648408 -1.4921569e-20)
(0.014954147 0.019496457 -6.9059643e-22)
(0.028436233 0.014604706 5.5499788e-21)
(0.044403144 0.0093034471 1.961588e-20)
(0.062730492 0.0038284162 7.3530856e-21)
(0.08330431 -0.0016547541 -7.1862215e-21)
(0.10601897 -0.0070322374 -2.0102313e-21)
(0.13077356 -0.012229096 -3.8191711e-20)
(0.15746943 -0.017199751 -1.2693645e-20)
(0.18601199 -0.021919732 1.8750606e-20)
(0.21631176 -0.026379715 -2.1021674e-20)
(0.24823222 -0.03060222 -8.9730581e-21)
(0.28151866 -0.034670604 3.0440467e-20)
(0.31660702 -0.038364816 5.0472066e-20)
(0.35665014 -0.039964096 3.3559658e-21)
(-0.0049617684 0.0093139986 1.6783304e-20)
(-0.0091662692 0.019097709 1.4467938e-20)
(-0.007859365 0.023563366 5.1145486e-20)
(-0.00185854 0.024328943 2.3387981e-20)
(0.008295722 0.022523783 1.8251774e-22)
(0.022221938 0.019014385 -3.9388456e-20)
(0.03959744 0.014440936 -2.431386e-20)
(0.060147901 0.0092663601 1.0465818e-20)
(0.083639111 0.003823229 1.4401587e-20)
(0.10986669 -0.0016512981 -1.3113712e-20)
(0.13864562 -0.0069910082 -4.4038716e-20)
(0.1698017 -0.012082845 2.9618499e-20)
(0.20316404 -0.016854157 2.0020552e-20)
(0.23855945 -0.021263992 -2.7551157e-20)
(0.27581229 -0.0252964 1.1650135e-20)
(0.31474809 -0.028957164 2.4197614e-20)
(0.35514544 -0.032303048 8.0723945e-21)
(0.39663386 -0.035506672 -1.1764211e-20)
(0.439577 -0.038392637 -1.4190297e-20)
(0.48798508 -0.038634396 5.8727594e-21)
(-0.0047307763 0.0081236732 1.1093845e-20)
(-0.0070586006 0.015671176 -2.3352718e-20)
(-0.0020293663 0.018562033 8.6200547e-21)
(0.0090325194 0.018216225 3.3587966e-20)
(0.02525636 0.01565115 5.2124338e-20)
(0.046066336 0.011695604 2.027651e-20)
(0.07098452 0.0069609532 -5.8639355e-21)
(0.099601944 0.0018829525 -1.2286284e-20)
(0.13156894 -0.0032271966 -6.2057468e-21)
(0.16657567 -0.0081496556 3.4240835e-20)
(0.20433424 -0.012733318 -4.5104385e-21)
(0.24456483 -0.016879184 -1.6643301e-20)
(0.28698468 -0.020528682 -1.9693573e-20)
(0.33129997 -0.023656407 -4.7443739e-20)
(0.37720457 -0.026265527 2.3238703e-20)
(0.42438768 -0.028387854 -1.4095984e-20)
(0.47249972 -0.030127612 2.5993399e-20)
(0.52103616 -0.031783179 2.1040824e-20)
(0.57021393 -0.033350667 -8.5570385e-20)
(0.62470914 -0.032058827 -1.0807191e-22)
(-0.003771052 0.0063146395 2.1925054e-20)
(-0.0028657666 0.010735096 -2.6165529e-20)
(0.0071421041 0.011564137 -4.5013294e-20)
(0.024450232 0.0099249904 -2.7253781e-20)
(0.047870849 0.0066523069 -2.0439868e-21)
(0.0766287 0.0024906185 1.3050095e-20)
(0.11007673 -0.0020153936 -2.8337698e-21)
(0.14765205 -0.0064879018 1.8118537e-20)
(0.18886095 -0.010663501 8.8685616e-21)
(0.23325194 -0.014362418 -1.1380172e-20)
(0.28039148 -0.017468945 8.8779132e-21)
(0.32984602 -0.0199168 -2.3903267e-20)
(0.38116879 -0.021678691 8.0504786e-21)
(0.43389083 -0.022759867 1.6756391e-20)
(0.48751934 -0.023194292 -2.6395143e-21)
(0.54154714 -0.023046881 1.6618987e-21)
(0.59543544 -0.022469433 -3.1957777e-22)
(0.64851782 -0.021870091 1.9590421e-20)
(0.70082238 -0.021445047 4.0434007e-21)
(0.75745149 -0.018499064 -5.7334849e-22)
(-0.0019110145 0.0040273483 2.3692111e-20)
(0.0038694295 0.0046765208 5.7159957e-20)
(0.020315309 0.0031879654 -4.9244223e-20)
(0.045178283 0.00029442753 -9.9454145e-21)
(0.076965149 -0.00342415 2.0256345e-20)
(0.11469622 -0.0073535836 2.1433717e-21)
(0.15753882 -0.011054954 -2.9815161e-20)
(0.2047483 -0.014244136 6.9848105e-21)
(0.25564949 -0.016737924 7.1097875e-21)
(0.30960472 -0.018426952 -2.6254078e-20)
(0.36598647 -0.019260092 1.2927326e-21)
(0.42415957 -0.01923186 -3.7174112e-20)
(0.483471 -0.018372194 -3.6341014e-20)
(0.54324564 -0.016738267 6.5683476e-20)
(0.60278811 -0.014407291 5.5627479e-21)
(0.66138883 -0.011475886 -1.5188793e-20)
(0.71830783 -0.0081020322 1.9363967e-20)
(0.772699 -0.0045928517 -9.1888146e-22)
(0.82408834 -0.00096803295 2.0364578e-20)
(0.87621966 0.0043280853 -1.9554155e-20)
(-0.018836424 -0.0050997021 5.8352038e-20)
(-0.010224664 -0.0056349253 1.5783665e-20)
(-0.00022120681 -0.0060688779 -3.5139551e-20)
(0.010823211 -0.0063341073 1.6790229e-20)
(0.022642447 -0.0065120444 0)
(0.035177861 -0.0066300871 0)
(0.048369633 -0.0066909702 -2.297494e-20)
(0.062138043 -0.0067025364 -1.6502866e-20)
(0.076412679 -0.0066741707 1.9122585e-20)
(0.091134035 -0.0066126619 1.8174026e-20)
(0.10624713 -0.0065232018 1.0524253e-21)
(0.12170017 -0.006410354 -1.0317633e-20)
(0.13744485 -0.006278077 8.3268746e-21)
(0.15343595 -0.0061297181 1.823371e-20)
(0.16963071 -0.0059681407 -5.2274133e-21)
(0.18598848 -0.0057958301 -1.0174932e-20)
(0.20247051 -0.0056149575 -4.3195859e-21)
(0.21903976 -0.0054274318 -4.4257378e-21)
(0.23566082 -0.0052349452 7.3667185e-22)
(0.25229982 -0.005039008 1.2286034e-21)
(0.26892441 -0.0048409752 2.5666295e-21)
(0.28550381 -0.0046420666 6.6539434e-21)
(0.30200885 -0.0044433814 2.4894485e-22)
(0.31841196 -0.004245909 -3.4514685e-21)
(0.33468733 -0.0040505369 1.5558773e-22)
(0.35081087 -0.0038580569 -5.7709755e-22)
(0.36676032 -0.0036691687 1.2434357e-21)
(0.38251529 -0.0034844849 1.0522433e-21)
(0.39805725 -0.0033045339 -1.2987922e-21)
(0.41336958 -0.0031297638 -1.221874e-22)
(0.42843755 -0.0029605466 3.5750259e-23)
(0.4432483 -0.0027971824 -3.5187559e-22)
(0.45779084 -0.0026399042 -4.0565369e-22)
(0.47205598 -0.0024888832 5.5412863e-23)
(0.4860363 -0.0023442348 -1.3809018e-22)
(0.49972612 -0.0022060244 -2.2343137e-22)
(0.51312141 -0.0020742741 2.5571886e-22)
(0.52621983 -0.0019489696 2.9501924e-22)
(0.53902057 -0.0018300691 -8.2710652e-24)
(0.55152475 -0.0017175072 -1.5517344e-22)
(0.56373434 -0.0016112229 3.0406613e-23)
(0.57565592 -0.0015111159 -4.0144712e-23)
(0.58728967 -0.0014172571 9.220334e-23)
(0.5986646 -0.0013293103 2.1977329e-23)
(0.60973508 -0.0012485589 -1.1394458e-22)
(0.62069312 -0.0011717937 -6.7612793e-24)
(0.6310611 -0.0011112449 -7.2437574e-26)
(0.64234962 -0.0010339482 -3.5611164e-24)
(0.65042757 -0.0010508057 2.9453728e-23)
(0.66700845 -0.00087555999 3.6050676e-22)
(0.010445866 -0.015017608 -1.2746814e-20)
(0.018179695 -0.016641011 -6.3302326e-20)
(0.027779212 -0.017915412 -3.0541936e-20)
(0.038385141 -0.01867207 3.8476008e-20)
(0.049620983 -0.019183587 1.466261e-20)
(0.061506624 -0.019529431 -1.8204925e-20)
(0.074012815 -0.019709864 4.6721992e-21)
(0.087062662 -0.019746491 2.5447185e-20)
(0.10059313 -0.01966728 9.1994139e-23)
(0.114554 -0.019491699 -7.6591231e-21)
(0.12889716 -0.019234358 -1.3021015e-20)
(0.143576 -0.01890831 -8.524528e-21)
(0.15854662 -0.018524971 1.7772331e-20)
(0.17376753 -0.018093999 8.9295411e-21)
(0.18919896 -0.017623677 -1.6522435e-20)
(0.20480273 -0.017121229 -6.0390571e-21)
(0.2205421 -0.016592994 3.2145044e-21)
(0.23638171 -0.016044568 8.3716312e-21)
(0.25228749 -0.015480929 6.9832256e-21)
(0.26822669 -0.014906538 -6.972714e-21)
(0.28416788 -0.014325411 -3.1685449e-21)
(0.30008105 -0.013741171 1.3605331e-21)
(0.3159376 -0.013157095 3.8682735e-22)
(0.33171048 -0.012576138 1.2113949e-21)
(0.34737423 -0.012000955 1.8368341e-22)
(0.36290505 -0.011433921 -3.2661607e-22)
(0.37828089 -0.010877138 -7.2434834e-22)
(0.39348145 -0.01033245 9.7156525e-22)
(0.40848825 -0.0098014515 8.2482903e-22)
(0.42328464 -0.0092854983 -1.5147323e-22)
(0.43785579 -0.0087857188 5.530604e-22)
(0.4521887 -0.0083030276 -2.3880906e-22)
(0.46627216 -0.0078381393 -3.7069863e-22)
(0.48009672 -0.0073915841 -6.0999051e-22)
(0.49365468 -0.0069637251 4.4171712e-22)
(0.50693999 -0.0065547762 -1.5476989e-23)
(0.51994827 -0.0061648219 1.6124709e-22)
(0.53267674 -0.0057938373 -4.4174719e-22)
(0.54512419 -0.0054417157 3.7189458e-22)
(0.55729127 -0.0051082788 6.7175192e-23)
(0.56917947 -0.0047933616 -1.0285401e-22)
(0.58079486 -0.0044966804 1.7613658e-22)
(0.59213721 -0.0042184641 2.3339595e-22)
(0.60323476 -0.0039577229 1.6926434e-22)
(0.61404207 -0.0037183025 1.6767142e-22)
(0.62474827 -0.0034906472 -2.6097932e-23)
(0.63488213 -0.0033112064 8.4043554e-23)
(0.64593131 -0.0030818641 7.6291479e-23)
(0.65382972 -0.0031323526 -1.9466478e-22)
(0.67009162 -0.0026124363 -3.802653e-23)
(0.06761468 -0.024029144 9.452829e-21)
(0.073589661 -0.026749046 3.2950986e-21)
(0.082265496 -0.028805565 -1.2162199e-20)
(0.091947808 -0.029968501 -1.2257899e-21)
(0.1019832 -0.030767861 1.4970586e-20)
(0.11254632 -0.031330888 -1.4887121e-20)
(0.12367595 -0.031636066 -2.9842265e-20)
(0.1352968 -0.031713001 1.4493518e-20)
(0.14735693 -0.031607631 1.8181961e-20)
(0.1598234 -0.031350051 -1.1598513e-20)
(0.17266057 -0.030961815 1.019055e-21)
(0.18583079 -0.030462748 8.6860145e-21)
(0.19929781 -0.029870546 -1.5253537e-20)
(0.21302654 -0.029200233 2.9095125e-21)
(0.22698241 -0.028464754 7.5194332e-21)
(0.24113138 -0.027675499 3.1599228e-23)
(0.25544013 -0.026842552 2.6556468e-22)
(0.26987603 -0.02597489 -7.4150834e-21)
(0.28440729 -0.025080558 3.8616806e-21)
(0.29900296 -0.024166813 8.4749021e-21)
(0.31363311 -0.023240227 -3.8351749e-21)
(0.32826889 -0.022306767 -2.213036e-21)
(0.34288269 -0.021371849 1.0124438e-21)
(0.35744817 -0.02044038 -1.7155318e-21)
(0.37194046 -0.019516787 1.3532251e-21)
(0.38633617 -0.01860504 7.1845901e-22)
(0.40061347 -0.017708668 1.5268379e-21)
(0.4147522 -0.016830777 -1.9526607e-21)
(0.42873388 -0.015974062 2.2235669e-21)
(0.44254174 -0.015140827 5.5188506e-22)
(0.4561607 -0.014332999 4.0322516e-22)
(0.46957746 -0.013552153 3.2134459e-22)
(0.48278037 -0.012799533 8.7324934e-22)
(0.49575948 -0.012076078 -1.3708594e-21)
(0.5085065 -0.011382449 3.706553e-22)
(0.52101473 -0.01071906 1.0941261e-22)
(0.53327907 -0.010086109 -4.5172163e-23)
(0.54529598 -0.0094836129 8.673281e-23)
(0.55706342 -0.0089114514 -3.718492e-22)
(0.5685812 -0.0083693844 1.8293468e-22)
(0.57984993 -0.0078571928 -3.4987099e-23)
(0.59087475 -0.0073744582 3.9004105e-22)
(0.60165458 -0.0069216099 -1.8544389e-22)
(0.6122163 -0.0064970595 4.7323409e-23)
(0.6225148 -0.0061071956 4.3603432e-23)
(0.63273378 -0.0057363309 -7.3599246e-23)
(0.64241419 -0.0054444055 -1.2082447e-22)
(0.6529997 -0.0050704991 3.8809083e-22)
(0.66054973 -0.0051542442 1.7270525e-22)
(0.67619336 -0.0043070114 -8.3039739e-22)
(0.15021527 -0.031460425 1.5010126e-21)
(0.15354688 -0.03525739 -1.1566608e-20)
(0.16061621 -0.038010915 6.6441962e-21)
(0.16880589 -0.039479093 -1.3324741e-20)
(0.17698222 -0.040520684 -1.9758308e-21)
(0.18552344 -0.041302275 9.1599375e-21)
(0.19458418 -0.041757231 -9.7662141e-21)
(0.2040869 -0.041913704 1.5662777e-21)
(0.21398766 -0.041833325 1.2903797e-20)
(0.22427597 -0.041554329 3.4031979e-21)
(0.23493252 -0.041102038 -6.2096945e-21)
(0.24593019 -0.040500443 -2.8638084e-21)
(0.25724156 -0.039771742 -5.8409052e-21)
(0.26883909 -0.038935049 -6.4553118e-21)
(0.28069421 -0.038006969 3.2356925e-21)
(0.2927776 -0.037002296 8.4621143e-22)
(0.30505972 -0.035934319 1.3679573e-21)
(0.31751096 -0.034815016 -3.3850411e-21)
(0.33010193 -0.033655243 -4.2428842e-21)
(0.34280359 -0.032464889 2.36165e-21)
(0.35558754 -0.03125299 3.2251342e-21)
(0.3684261 -0.030027809 -1.5636186e-21)
(0.38129256 -0.028796895 1.5867261e-21)
(0.3941613 -0.027567126 -3.9123958e-22)
(0.40700787 -0.026344737 -3.9196389e-21)
(0.4198092 -0.025135346 -3.0332806e-21)
(0.43254359 -0.02394397 -1.9026261e-22)
(0.44519086 -0.022775043 4.2858938e-22)
(0.45773234 -0.021632435 -2.2106027e-21)
(0.47015096 -0.020519471 -8.5497103e-22)
(0.48243124 -0.01943896 2.2837648e-22)
(0.49455932 -0.018393215 -1.2498676e-21)
(0.50652291 -0.017384092 6.2631216e-24)
(0.5183113 -0.01641302 -4.2420845e-22)
(0.52991537 -0.015481042 -4.7193594e-22)
(0.54132749 -0.014588854 -5.1995631e-22)
(0.55254156 -0.013736851 -8.4133017e-22)
(0.563553 -0.012925174 -5.4496337e-23)
(0.57435864 -0.012153769 -3.916042e-24)
(0.58495712 -0.011422413 -5.1972268e-22)
(0.59534787 -0.010730909 -9.1607139e-23)
(0.60553474 -0.010078782 -3.3239315e-22)
(0.61551555 -0.0094667236 -4.3759842e-22)
(0.6253153 -0.0088926356 3.7841662e-22)
(0.63488937 -0.0083654029 1.4820954e-23)
(0.64441381 -0.0078635798 1.8237549e-22)
(0.65344707 -0.0074693383 -1.3246663e-22)
(0.66336966 -0.0069629496 -2.6691028e-22)
(0.67042173 -0.0070791495 -4.4692145e-23)
(0.68517863 -0.0059326842 4.6229511e-22)
(0.25468563 -0.036552749 -2.0900306e-20)
(0.25447017 -0.0413935 4.7585949e-20)
(0.25907329 -0.044745647 1.0348097e-20)
(0.26508408 -0.046442032 -1.5765319e-20)
(0.27070928 -0.047714303 -2.0227924e-21)
(0.27651989 -0.048747763 2.6232253e-21)
(0.28283544 -0.049413705 -1.6608195e-21)
(0.28957684 -0.049728086 -4.6861409e-21)
(0.29669651 -0.049761417 -4.0159159e-21)
(0.3042054 -0.049557039 -1.2207636e-20)
(0.31210211 -0.049141673 1.7897749e-20)
(0.3203693 -0.048540788 6.5219883e-21)
(0.32898691 -0.047778951 -1.678052e-20)
(0.33793394 -0.046878005 1.0317572e-20)
(0.34718698 -0.045857286 8.3849906e-21)
(0.35672065 -0.044734299 -8.7923777e-22)
(0.36650835 -0.043525053 -3.1222231e-21)
(0.37652278 -0.042244233 -3.8197297e-21)
(0.3867363 -0.040905345 -1.3892571e-21)
(0.39712119 -0.039520838 -1.2304184e-21)
(0.40764997 -0.038102207 -3.025759e-21)
(0.41829567 -0.036660055 0)
(0.42903201 -0.03520414 -1.3451904e-21)
(0.43983361 -0.033743408 3.9309497e-21)
(0.45067611 -0.032286013 5.4052641e-21)
(0.46153636 -0.03083934 -9.4112537e-22)
(0.47239245 -0.029410013 -2.9274417e-21)
(0.48322385 -0.02800392 3.0258361e-21)
(0.49401145 -0.026626229 2.54475e-22)
(0.50473758 -0.025281412 3.4352427e-21)
(0.51538609 -0.023973274 -5.3459726e-22)
(0.52594232 -0.022704992 1.7173455e-21)
(0.53639309 -0.021479147 -7.9964289e-22)
(0.54672673 -0.020297775 2.9094081e-22)
(0.55693304 -0.019162412 -4.3403874e-22)
(0.56700327 -0.018074148 5.6231576e-22)
(0.57693009 -0.017033683 4.57098e-22)
(0.58670768 -0.016041385 3.8255522e-22)
(0.59633153 -0.015097371 -9.5936017e-22)
(0.60579894 -0.014201537 6.8355286e-22)
(0.61510793 -0.013353805 -3.6957279e-22)
(0.62426085 -0.012553733 -1.1033156e-21)
(0.63325428 -0.011802353 1.4078127e-21)
(0.64211093 -0.011097172 -6.2005648e-23)
(0.65078699 -0.010449494 -1.5815927e-22)
(0.65944893 -0.0098326196 -7.8244253e-24)
(0.66767744 -0.0093492346 -1.262151e-22)
(0.67677327 -0.0087261939 -4.6582274e-22)
(0.68320513 -0.0088736322 8.7882851e-22)
(0.69685056 -0.0074648886 -4.4315629e-23)
(0.37635126 -0.038368156 -1.7495097e-20)
(0.37170973 -0.044270217 1.2832049e-20)
(0.37286686 -0.0481616 2.975454e-21)
(0.37591041 -0.050098837 -7.6353731e-21)
(0.37830522 -0.051669957 1.2055979e-20)
(0.38072289 -0.053042358 7.7914093e-21)
(0.38367596 -0.054030024 -1.2647688e-20)
(0.38710052 -0.054633087 -6.0679759e-21)
(0.39092918 -0.054917987 1.2697338e-20)
(0.39518237 -0.054927116 -1.530497e-20)
(0.39987419 -0.054687497 -1.4063188e-20)
(0.40499501 -0.054224634 1.4129631e-20)
(0.41052855 -0.053563641 6.8193825e-21)
(0.41645711 -0.05272793 -4.2037647e-21)
(0.42276007 -0.051738997 -1.8545612e-21)
(0.42941396 -0.05061673 -4.0581714e-21)
(0.4363934 -0.049379682 5.3047594e-21)
(0.44367188 -0.048045207 3.6682083e-21)
(0.45122216 -0.046629528 -3.2408292e-21)
(0.4590167 -0.045147795 3.1379482e-21)
(0.46702798 -0.043614138 2.7666794e-21)
(0.47522882 -0.042041706 -3.2111123e-21)
(0.48359259 -0.04044268 3.7056557e-22)
(0.49209346 -0.038828296 -3.2571639e-21)
(0.50070654 -0.037208843 7.245412e-21)
(0.50940803 -0.035593684 6.108058e-21)
(0.51817533 -0.033991258 8.0973132e-22)
(0.52698712 -0.0324091 -1.7683226e-21)
(0.53582343 -0.030853861 3.7021756e-21)
(0.54466568 -0.029331334 7.1885166e-21)
(0.55349673 -0.027846494 2.3049302e-21)
(0.56230083 -0.026403534 3.3164852e-21)
(0.57106371 -0.025005916 1.9956201e-21)
(0.57977251 -0.023656425 7.4557902e-22)
(0.58841577 -0.02235723 -2.6374545e-22)
(0.59698346 -0.021109946 2.720311e-21)
(0.60546692 -0.019915703 6.1992152e-22)
(0.61385892 -0.018775223 2.9487754e-22)
(0.62215355 -0.017688907 5.6232444e-23)
(0.63034664 -0.016656882 9.8966463e-22)
(0.63843475 -0.015679292 4.7020052e-23)
(0.64641864 -0.014755838 4.424739e-22)
(0.6542936 -0.013887971 -1.2621783e-22)
(0.66207986 -0.013072927 -2.7734796e-22)
(0.66973471 -0.012324331 -1.5218612e-22)
(0.6774136 -0.011610816 -4.220783e-22)
(0.68472341 -0.011053516 1.6139275e-22)
(0.69287161 -0.010332309 -1.2723592e-22)
(0.69859445 -0.010509409 -5.0126347e-22)
(0.71095684 -0.00888174 2.4586912e-22)
(0.50927425 -0.035974264 3.6471432e-21)
(0.49953034 -0.042960644 -1.8958306e-20)
(0.4962755 -0.04738344 -2.3083843e-21)
(0.49555585 -0.049736743 5.486949e-21)
(0.49416945 -0.051818007 3.0528115e-21)
(0.49269565 -0.053705371 -4.9885485e-23)
(0.4918122 -0.055187608 6.1896647e-21)
(0.49151442 -0.056265356 7.6251006e-21)
(0.49171157 -0.056990489 9.8580391e-21)
(0.49241062 -0.057395528 -1.1250039e-20)
(0.49363094 -0.057506254 -2.1579418e-20)
(0.49536767 -0.057348368 -3.9353465e-21)
(0.49760457 -0.05694708 1.593814e-20)
(0.50032291 -0.056326957 1.2808956e-20)
(0.50350154 -0.055511679 -5.9066944e-21)
(0.5071164 -0.05452379 1.3817048e-21)
(0.51114127 -0.053384726 -3.6600828e-21)
(0.51554862 -0.052114879 2.244374e-21)
(0.52031016 -0.050733586 -2.9123015e-22)
(0.52539721 -0.049259102 -1.8654091e-21)
(0.53078112 -0.047708596 7.8265863e-21)
(0.5364335 -0.046098145 -2.9308768e-22)
(0.54232656 -0.044442723 4.1818104e-22)
(0.54843325 -0.042756195 -6.5646643e-22)
(0.55472746 -0.041051314 -4.3029368e-21)
(0.56118415 -0.039339718 4.2085144e-21)
(0.5677795 -0.037631937 1.9031213e-21)
(0.57449092 -0.035937412 -3.3081907e-21)
(0.58129718 -0.034264515 -4.111642e-21)