/*--------------------------------*- C++ -*----------------------------------*\
  =========                 |
  \\      /  F ield         | OpenFOAM: The Open Source CFD Toolbox
   \\    /   O peration     | Website:  https://openfoam.org
    \\  /    A nd           | Version:  6
     \\/     M anipulation  |
\*---------------------------------------------------------------------------*/
FoamFile
{
    version     2.0;
    format      ascii;
    class       volScalarField;
    location    "261";
    object      p;
}
// * * * * * * * * * * * * * * * * * * * * * * * * * * * * * * * * * * * * * //

dimensions      [0 2 -2 0 0 0 0];

internalField   nonuniform List<scalar> 
9200
(
-0.377949
-0.36660252
-0.35650884
-0.34755956
-0.33881986
-0.33030363
-0.32208915
-0.3141439
-0.30640059
-0.29878726
-0.29123097
-0.28366268
-0.27602424
-0.26827563
-0.26040561
-0.25244947
-0.24448354
-0.23659565
-0.22981071
-0.22841076
-0.39580971
-0.38201205
-0.36997474
-0.35950566
-0.34939395
-0.33962103
-0.33025569
-0.32123464
-0.31245838
-0.30382858
-0.29525205
-0.28664659
-0.2779485
-0.26911861
-0.26014781
-0.25106107
-0.24188824
-0.23262903
-0.2239664
-0.21806627
-0.41408738
-0.39781571
-0.3838807
-0.37196227
-0.36053384
-0.34952625
-0.33898696
-0.32881426
-0.31887448
-0.30904675
-0.29922678
-0.2893325
-0.27931085
-0.26914085
-0.25883356
-0.24842762
-0.23796181
-0.22744509
-0.21727669
-0.20857168
-0.43234798
-0.41362142
-0.39785406
-0.38454789
-0.371823
-0.35954326
-0.34772701
-0.33623358
-0.32490303
-0.31360737
-0.30225194
-0.29077852
-0.27916842
-0.26744029
-0.25564342
-0.24384761
-0.23211943
-0.22049776
-0.20925002
-0.19911732
-0.44996156
-0.42888313
-0.41140018
-0.39678335
-0.38277169
-0.36915133
-0.35591133
-0.34288271
-0.32989983
-0.31685463
-0.30369181
-0.2904052
-0.27703358
-0.26365078
-0.25035229
-0.23724103
-0.22440706
-0.2119089
-0.19993475
-0.18899203
-0.46610365
-0.44288188
-0.42385896
-0.4080209
-0.39271592
-0.37765246
-0.36280274
-0.34799511
-0.33309235
-0.31804271
-0.30286311
-0.28762413
-0.27243568
-0.25742891
-0.24273796
-0.22848486
-0.21476426
-0.20163204
-0.18921418
-0.17784746
-0.4797691
-0.45473133
-0.43440575
-0.41744656
-0.40082798
-0.38419657
-0.36753554
-0.35071131
-0.33365956
-0.31642422
-0.29912264
-0.28191597
-0.26498438
-0.24850351
-0.23262581
-0.21746915
-0.20310922
-0.18957715
-0.17693978
-0.16539831
-0.4897941
-0.46340133
-0.44208378
-0.42412703
-0.40618101
-0.38786435
-0.36921389
-0.35018632
-0.33083867
-0.31134552
-0.29194195
-0.27287929
-0.25439334
-0.23668094
-0.21988686
-0.20410091
-0.18936028
-0.17565682
-0.16299944
-0.15147539
-0.49483646
-0.46761663
-0.44560706
-0.42672652
-0.40739908
-0.38727748
-0.36651221
-0.34520748
-0.32358121
-0.30195418
-0.28067264
-0.26005545
-0.24036328
-0.22178287
-0.20442502
-0.18833285
-0.17349424
-0.15985758
-0.14737777
-0.13604455
-0.49354573
-0.46596036
-0.44342801
-0.42357973
-0.40276041
-0.38074055
-0.35784967
-0.33438533
-0.31074015
-0.2873642
-0.26467765
-0.24302146
-0.22263838
-0.20367206
-0.18617893
-0.17014679
-0.15551467
-0.1421931
-0.13009024
-0.11911096
-0.265067
-0.26974128
-0.27224969
-0.27300083
-0.27278671
-0.2717942
-0.27010476
-0.26780593
-0.2649699
-0.26165142
-0.25789452
-0.25373672
-0.24921114
-0.24434783
-0.23917507
-0.23372174
-0.22801872
-0.22208654
-0.21592422
-0.2096173
-0.26779964
-0.27205867
-0.27426033
-0.2747928
-0.27439561
-0.27324688
-0.27142617
-0.26901731
-0.26608896
-0.26269299
-0.25887105
-0.25465853
-0.25008665
-0.24518349
-0.23997471
-0.23448817
-0.22876222
-0.22281575
-0.21654146
-0.20991342
-0.27312911
-0.27657608
-0.27817976
-0.2782845
-0.27752839
-0.27607411
-0.2739977
-0.27137574
-0.26826993
-0.26472654
-0.26078239
-0.25646864
-0.25181275
-0.24683893
-0.24156802
-0.23602502
-0.23025969
-0.22428977
-0.21781617
-0.21058113
-0.28081554
-0.28309999
-0.28383814
-0.28331415
-0.28202513
-0.28011418
-0.27765338
-0.27470943
-0.27133438
-0.26756666
-0.26343623
-0.25896815
-0.25418434
-0.24910333
-0.24373913
-0.23811159
-0.23228239
-0.22627393
-0.21954069
-0.21145514
-0.29055662
-0.29138736
-0.29102394
-0.2896827
-0.2876918
-0.28517359
-0.28219694
-0.27881729
-0.27507526
-0.27100005
-0.26661335
-0.26193197
-0.2569703
-0.25173993
-0.24624676
-0.24050228
-0.23457616
-0.22850396
-0.22148102
-0.21236502
-0.30203859
-0.301186
-0.29951977
-0.29718922
-0.29433679
-0.2910654
-0.28744298
-0.28351394
-0.27930692
-0.27483944
-0.27012241
-0.26516337
-0.2599679
-0.25453919
-0.24887397
-0.24297241
-0.23690424
-0.23072439
-0.22339708
-0.21314383
-0.31498249
-0.31227088
-0.30913491
-0.30566403
-0.30180627
-0.29764831
-0.29326099
-0.28867732
-0.28391125
-0.27896781
-0.27384642
-0.26854335
-0.26305357
-0.25737073
-0.25148248
-0.24537719
-0.23911737
-0.23278061
-0.22516315
-0.21378128
-0.32917233
-0.32446696
-0.31972749
-0.31499325
-0.3100136
-0.30486197
-0.2996124
-0.29428572
-0.2888811
-0.28338917
-0.27779499
-0.27208056
-0.26622725
-0.2602166
-0.25402662
-0.24763674
-0.24110673
-0.23456014
-0.22674445
-0.21446557
-0.34445503
-0.33764184
-0.33118713
-0.3250902
-0.31889444
-0.31265864
-0.30646201
-0.30031263
-0.29419207
-0.28807333
-0.28192355
-0.27570629
-0.26938382
-0.26291738
-0.25626253
-0.24937139
-0.24226828
-0.23505939
-0.22648738
-0.21304989
-0.36073173
-0.35168778
-0.34340161
-0.33583743
-0.32831917
-0.32089084
-0.31363669
-0.30654976
-0.29959154
-0.29271573
-0.28587122
-0.27900483
-0.27206424
-0.26499801
-0.2577503
-0.25025669
-0.24246006
-0.23415378
-0.223687
-0.20801828
-0.20246659
-0.1935183
-0.18456506
-0.17567086
-0.166782
-0.15794017
-0.14919887
-0.14059317
-0.13215233
-0.12390497
-0.11587689
-0.10809028
-0.10056426
-0.09331521
-0.086356702
-0.079699626
-0.073352274
-0.06732045
-0.061607564
-0.056214747
-0.051140972
-0.046383192
-0.041936493
-0.037794257
-0.033948344
-0.030389272
-0.027106414
-0.024088193
-0.021322276
-0.018795766
-0.016495387
-0.014407658
-0.012519063
-0.0108162
-0.0092859276
-0.0079154947
-0.0066926674
-0.0056058315
-0.0046441701
-0.0037975865
-0.0030575249
-0.0024149813
-0.0018676856
-0.0013989955
-0.0010444936
-0.00069461554
-0.00068792346
-8.0127208e-05
-0.0017060544
0.0024523275
-0.20347663
-0.19413108
-0.18506879
-0.17618893
-0.16728205
-0.15841003
-0.14964431
-0.14101634
-0.13255293
-0.12428325
-0.11623337
-0.10842537
-0.10087837
-0.093608798
-0.086630307
-0.079953845
-0.073587768
-0.06753794
-0.061807825
-0.056398593
-0.051309251
-0.046536771
-0.042076253
-0.037921081
-0.034063107
-0.030492835
-0.027199619
-0.024171853
-0.021397174
-0.01886265
-0.016554965
-0.014460599
-0.012565994
-0.010857706
-0.0093225489
-0.0079477294
-0.0067209716
-0.0056306196
-0.004665816
-0.0038164247
-0.0030738498
-0.0024290511
-0.0018797013
-0.0014091663
-0.0010527494
-0.00070153655
-0.00069132594
-8.594321e-05
-0.0016914962
0.0024237402
-0.20559531
-0.19539914
-0.18611942
-0.17730824
-0.16837776
-0.15944506
-0.15063172
-0.14195973
-0.1334493
-0.12513171
-0.11703429
-0.10917899
-0.10158504
-0.094269207
-0.087245433
-0.080524881
-0.074116116
-0.068025188
-0.062255713
-0.056808984
-0.051684098
-0.046878089
-0.042386091
-0.038201496
-0.034316143
-0.030720504
-0.027403881
-0.024354606
-0.021560237
-0.019007757
-0.016683759
-0.014574624
-0.012666692
-0.010946417
-0.0094005103
-0.0080160764
-0.0067807393
-0.0056827459
-0.0047111442
-0.0038557064
-0.0031077461
-0.0024581381
-0.0019044371
-0.001430003
-0.0010696111
-0.00071554853
-0.00069831605
-9.7432953e-05
-0.0016629195
0.0023671794
-0.20866392
-0.19709105
-0.18749037
-0.17887815
-0.16995828
-0.16094889
-0.15208141
-0.14336048
-0.13479101
-0.1264094
-0.11824666
-0.1103248
-0.10266334
-0.095279906
-0.08818913
-0.081402703
-0.074929649
-0.068776425
-0.062946982
-0.05744288
-0.05226342
-0.047405784
-0.042865202
-0.038635115
-0.034707369
-0.031072409
-0.027719475
-0.024636813
-0.021811876
-0.019231519
-0.016882196
-0.014750142
-0.01282154
-0.011082685
-0.0095201307
-0.0081208208
-0.0068722235
-0.0057624332
-0.0047803498
-0.0039156017
-0.0031593613
-0.0025023699
-0.0019420024
-0.0014615993
-0.0010951591
-0.00073671451
-0.00070899272
-0.0001145485
-0.0016210721
0.0022838696
-0.2124558
-0.19893631
-0.18891242
-0.18070098
-0.17187709
-0.16279368
-0.15388315
-0.1451296
-0.13650653
-0.12805755
-0.11982219
-0.11182356
-0.10408164
-0.096615481
-0.089441123
-0.082571283
-0.07601583
-0.06978196
-0.063874245
-0.058294745
-0.053043154
-0.048116954
-0.043511585
-0.039220628
-0.035235995
-0.031548142
-0.028146268
-0.025018535
-0.022152276
-0.019534197
-0.017150581
-0.014987474
-0.013030857
-0.011266819
-0.0096816983
-0.0082622278
-0.0069956652
-0.0058698983
-0.0048736268
-0.0039962833
-0.0032288487
-0.0025618821
-0.0019925167
-0.0015040603
-0.001129489
-0.00076510634
-0.00072350192
-0.00013718891
-0.0015670975
0.002175696
-0.21662368
-0.20065443
-0.19011645
-0.18254356
-0.17396188
-0.16483608
-0.15590485
-0.1471531
-0.13850315
-0.13000018
-0.12169754
-0.11362282
-0.10579699
-0.098240987
-0.090973078
-0.084007773
-0.077356354
-0.071027224
-0.065025982
-0.059355532
-0.054016247
-0.04900614
-0.04432105
-0.039954841
-0.035899607
-0.032145893
-0.028682914
-0.025498779
-0.022580711
-0.019915267
-0.017488538
-0.015286354
-0.01329446
-0.011498692
-0.0098851321
-0.0084402494
-0.0071510409
-0.0060051367
-0.004990985
-0.0040977725
-0.0033162383
-0.0026367117
-0.0020560219
-0.001557432
-0.0011726551
-0.00080076673
-0.00074199844
-0.00016521282
-0.0015024438
0.0020451126
-0.22077
-0.20206384
-0.19089073
-0.18412819
-0.17601214
-0.1669491
-0.15803145
-0.14931879
-0.140685
-0.13215944
-0.12380784
-0.11566769
-0.10776328
-0.10011791
-0.092752781
-0.085685173
-0.078928575
-0.072493207
-0.066386213
-0.06061179
-0.055171359
-0.050063766
-0.045285497
-0.040830894
-0.036692387
-0.032860724
-0.029325216
-0.026073975
-0.023094149
-0.02037215
-0.017893879
-0.01564493
-0.013610784
-0.011776991
-0.010129332
-0.008653972
-0.0073375981
-0.0061675352
-0.0051319318
-0.0042196801
-0.0034212296
-0.0027266344
-0.0021323584
-0.0016216109
-0.0012246069
-0.00084367461
-0.00076461914
-0.00019846938
-0.0014287602
0.0018950089
-0.22463393
-0.20356017
-0.1914596
-0.18526746
-0.17781363
-0.16904538
-0.16021933
-0.15157046
-0.14299014
-0.13447969
-0.12610392
-0.11791296
-0.10993885
-0.10220841
-0.094746197
-0.087573004
-0.080705329
-0.074155831
-0.067933705
-0.062044873
-0.056492179
-0.051275616
-0.046392573
-0.041838085
-0.037605082
-0.033684654
-0.030066308
-0.026738229
-0.023687536
-0.020900529
-0.018362924
-0.016060075
-0.013977185
-0.012099489
-0.010412438
-0.0089018522
-0.0075540698
-0.0063560669
-0.0052956484
-0.0043613678
-0.0035433398
-0.0028313006
-0.0022212893
-0.0016964571
-0.0012852898
-0.00089383231
-0.00079155321
-0.00023686682
-0.0013478469
0.0017286744
-0.22587325
-0.20538807
-0.1925186
-0.18589766
-0.17893124
-0.17074461
-0.16219501
-0.15367527
-0.14520195
-0.13676854
-0.12842269
-0.12022225
-0.11221037
-0.10441971
-0.096878786
-0.089612487
-0.082641178
-0.075980793
-0.069643306
-0.06363703
-0.057966835
-0.052634395
-0.047638471
-0.042975189
-0.038638321
-0.034619575
-0.03090888
-0.027494678
-0.024364196
-0.021503719
-0.01889885
-0.016534746
-0.014396347
-0.01246858
-0.01073655
-0.0091857094
-0.0078020157
-0.0065720579
-0.0054832547
-0.0045237758
-0.0036833537
-0.0029513607
-0.0023233498
-0.0017823992
-0.0013550601
-0.00095146275
-0.00082318794
-0.00028011397
-0.0012618616
0.0015503784
-0.21601262
-0.20463417
-0.19363633
-0.18554896
-0.17849319
-0.17108081
-0.16313744
-0.15498358
-0.14679815
-0.1386072
-0.13043846
-0.1223494
-0.11439552
-0.10661976
-0.099057936
-0.091741614
-0.084697456
-0.07794693
-0.071506733
-0.065389219
-0.059602689
-0.054151687
-0.049037335
-0.044257668
-0.039807968
-0.035681103
-0.031867855
-0.028357254
-0.025136893
-0.022193232
-0.019511891
-0.01707792
-0.014876047
-0.012890913
-0.011107277
-0.0095102037
-0.0080852394
-0.0068185455
-0.0056971083
-0.0047086627
-0.0038425073
-0.0030875952
-0.0024389358
-0.001879489
-0.0014337484
-0.0010160414
-0.00085933331
-0.00032655303
-0.0011733647
0.0013656232
-0.19387465
-0.19858177
-0.19330863
-0.18440441
-0.17690189
-0.1698942
-0.16239409
-0.15453707
-0.146589
-0.13861308
-0.13062887
-0.12268926
-0.11485353
-0.10716903
-0.099674765
-0.092405213
-0.085390014
-0.078653429
-0.072214672
-0.06608836
-0.060284819
-0.054810385
-0.049667743
-0.044856283
-0.040372447
-0.036210081
-0.032360787
-0.028814262
-0.025558637
-0.022580792
-0.019866664
-0.017401528
-0.015170265
-0.013157599
-0.011348317
-0.0097274699
-0.0082805488
-0.0069936309
-0.0058535909
-0.0048480357
-0.0039660859
-0.00319658
-0.0025340644
-0.0019619358
-0.0015019279
-0.0010746803
-0.00089045936
-0.00037295339
-0.0010829367
0.0011823121
-0.18332584
-0.18914681
-0.18567395
-0.17693534
-0.1697326
-0.16347666
-0.15677702
-0.14963388
-0.14234317
-0.13497993
-0.12755389
-0.12011363
-0.11272087
-0.10542666
-0.098273557
-0.091299876
-0.084539293
-0.078020072
-0.071765269
-0.065793139
-0.060117422
-0.05474763
-0.049689375
-0.044944727
-0.040512568
-0.036388948
-0.032567452
-0.029039547
-0.025794931
-0.022821868
-0.020107499
-0.017638145
-0.015399582
-0.013377294
-0.011556707
-0.0099233985
-0.0084632887
-0.0071627963
-0.0060090515
-0.0049898636
-0.0040944246
-0.0033117544
-0.0026359571
-0.0020514461
-0.0015762417
-0.0011399556
-0.00092403605
-0.00042746591
-0.00098207222
0.00098467683
-0.17458773
-0.17780926
-0.1755323
-0.16851174
-0.16215942
-0.15659738
-0.15066452
-0.14425143
-0.13762475
-0.13087959
-0.12402786
-0.11711192
-0.11019227
-0.1033218
-0.096545198
-0.089903135
-0.083432204
-0.077163888
-0.071124534
-0.06533568
-0.059814288
-0.054572972
-0.049620291
-0.044961082
-0.040596798
-0.036525864
-0.032744028
-0.029244723
-0.026019411
-0.023057927
-0.020348802
-0.017879571
-0.015637066
-0.013607674
-0.011777591
-0.010133036
-0.0086604559
-0.0073466988
-0.0061792218
-0.0051460979
-0.0042366314
-0.0034400731
-0.0027500583
-0.0021521476
-0.0016602766
-0.0012139396
-0.0009630547
-0.0004888597
-0.00087372156
0.0007682042
-0.16490966
-0.16552249
-0.16369114
-0.15874665
-0.15362426
-0.14880485
-0.1436631
-0.13806172
-0.13217808
-0.12611301
-0.1198942
-0.11356206
-0.10717373
-0.10078273
-0.0944356
-0.088175002
-0.082040022
-0.076065107
-0.070279799
-0.064708918
-0.059372726
-0.054287092
-0.049463725
-0.044910466
-0.0406316
-0.03662819
-0.032898423
-0.029437958
-0.026240276
-0.023297023
-0.020598345
-0.018133199
-0.015889656
-0.013855176
-0.012016871
-0.010361729
-0.0088768425
-0.0075495797
-0.0063678055
-0.0053199206
-0.0043953922
-0.0035837372
-0.0028781431
-0.0022653206
-0.0017550999
-0.0012968358
-0.0010087545
-0.00055461271
-0.00076544332
0.00054295388
-0.15434059
-0.15307351
-0.15126419
-0.14803458
-0.1442054
-0.14019084
-0.13584612
-0.13108869
-0.12600201
-0.12066913
-0.11513319
-0.10943721
-0.10363418
-0.09777648
-0.091911561
-0.086083365
-0.080332721
-0.074696471
-0.069206989
-0.063892164
-0.058775471
-0.053876054
-0.049208877
-0.044784956
-0.040611623
-0.036692829
-0.033029464
-0.029619685
-0.026459265
-0.023541924
-0.020859671
-0.018403118
-0.016161793
-0.014124424
-0.012279211
-0.010614073
-0.0091168736
-0.007775622
-0.006578687
-0.0055148757
-0.0045738837
-0.0037455312
-0.0030226118
-0.0023929294
-0.0018623859
-0.0013896792
-0.001062635
-0.00062409563
-0.00066327543
0.00031703037
-0.14255415
-0.14049522
-0.13880044
-0.13684514
-0.13418681
-0.13100824
-0.12745064
-0.12351784
-0.11923196
-0.11464884
-0.10981938
-0.10478826
-0.099603925
-0.094316391
-0.088972938
-0.083617737
-0.078292253
-0.073034736
-0.067879626
-0.062857312
-0.057994061
-0.05331201
-0.048829227
-0.044559852
-0.040514304
-0.036699522
-0.033119248
-0.029774326
-0.026663023
-0.023781354
-0.021123411
-0.01868168
-0.016447354
-0.014410625
-0.012560966
-0.010887388
-0.0093786773
-0.0080236121
-0.006811178
-0.0057306808
-0.004772127
-0.0039256842
-0.0031838365
-0.0025353906
-0.0019826505
-0.001492786
-0.0011256783
-0.00069686716
-0.00057321029
9.908621e-05
-0.1298602
-0.12793044
-0.12658373
-0.12554053
-0.12384582
-0.1214769
-0.1186796
-0.11552546
-0.11201133
-0.10816677
-0.1040417
-0.099682516
-0.095132175
-0.090435593
-0.085638683
-0.080785085
-0.075915911
-0.071069677
-0.066281879
-0.061584592
-0.057006222
-0.05257138
-0.048300856
-0.044211659
-0.040317141
-0.03662717
-0.033148352
-0.029884286
-0.026835851
-0.024001503
-0.021377582
-0.018958628
-0.016737678
-0.014706573
-0.01285623
-0.011176915
-0.0096584912
-0.0082906386
-0.0070630827
-0.0059657306
-0.0049889944
-0.0041234417
-0.0033613567
-0.0026924366
-0.0021158488
-0.0016060839
-0.0011985597
-0.00077251191
-0.00050114817
-0.00010156871
-0.11697447
-0.1156249
-0.11476686
-0.11437947
-0.11344032
-0.11180662
-0.10972009
-0.10728311
-0.10448896
-0.10134945
-0.097906691
-0.094205001
-0.090284224
-0.086183665
-0.081944399
-0.077608337
-0.073215611
-0.068804067
-0.064409183
-0.060063743
-0.055797468
-0.051636758
-0.047604554
-0.043720293
-0.039999931
-0.03645604
-0.033097957
-0.029931981
-0.026961605
-0.02418778
-0.021609192
-0.01922255
-0.01702288
-0.015003815
-0.013157871
-0.011476722
-0.0099514466
-0.0085727677
-0.0073312736
-0.0062175813
-0.005222612
-0.0043373945
-0.0035541412
-0.0028633244
-0.0022615265
-0.0017292451
-0.0012816545
-0.00085081985
-0.00045210911
-0.00027608463
-0.10444015
-0.10375712
-0.10341496
-0.10352159
-0.10317051
-0.1021741
-0.10072917
-0.098939401
-0.096801344
-0.094317305
-0.091519609
-0.088447231
-0.085135513
-0.081619419
-0.077935443
-0.074121124
-0.070214185
-0.066251102
-0.062266501
-0.058292925
-0.054360511
-0.050496658
-0.046725778
-0.043069157
-0.039544888
-0.036167879
-0.032949926
-0.029899843
-0.027023629
-0.024324684
-0.021804043
-0.019460638
-0.01729156
-0.015292338
-0.013457205
-0.011779365
-0.010251245
-0.0088647325
-0.0076114003
-0.0064826839
-0.0054701212
-0.0045652709
-0.0037604136
-0.0030466938
-0.0024187043
-0.0018616108
-0.0013749238
-0.00093179499
-0.00042945645
-0.00041731901
-0.092542861
-0.092445902
-0.092572167
-0.093066445
-0.093176705
-0.092715154
-0.09183086
-0.090613772
-0.089062714
-0.087175232
-0.084974572
-0.082492685
-0.079759645
-0.076805324
-0.073661755
-0.070362349
-0.066940874
-0.06343113
-0.05986613
-0.056277409
-0.052694682
-0.049145536
-0.045655123
-0.042245932
-0.03893763
-0.035746997
-0.032687909
-0.0297714
-0.027005762
-0.024396702
-0.021947524
-0.019659351
-0.017531354
-0.015561004
-0.013744323
-0.012076138
-0.010550322
-0.0091600353
-0.0078979421
-0.0067563994
-0.0057276667
-0.0048039066
-0.003977611
-0.003240521
-0.0025858333
-0.002002139
-0.0014778356
-0.0010155488
-0.0004343163
-0.00052096487
-0.081422963
-0.081781995
-0.082290682
-0.083087553
-0.083558651
-0.083534207
-0.083125215
-0.082403788
-0.081368326
-0.080013464
-0.078354798
-0.076416917
-0.074224131
-0.071801039
-0.069174569
-0.066373754
-0.063428503
-0.060369013
-0.057225598
-0.054028038
-0.050804913
-0.047583249
-0.044388212
-0.041242819
-0.038167714
-0.035181015
-0.032298231
-0.029532241
-0.026893335
-0.024389299
-0.022025547
-0.019805289
-0.017729722
-0.015798251
-0.014008708
-0.012357588
-0.010840282
-0.0094513007
-0.0081844902
-0.0070332182
-0.0059905634
-0.0050493675
-0.0042024733
-0.0034421763
-0.0027608316
-0.0021493993
-0.0015893371
-0.0011021447
-0.00046528689
-0.00058638562
-0.071140891
-0.07182786
-0.072622911
-0.073644818
-0.074391083
-0.074713769
-0.074695749
-0.074392547
-0.073800474
-0.072911745
-0.07173563
-0.070289794
-0.068592677
-0.066663561
-0.064524186
-0.062198717
-0.059712868
-0.057093156
-0.054366557
-0.051560232
-0.048700937
-0.045814473
-0.04292534
-0.040056423
-0.037228727
-0.03446115
-0.031770336
-0.029170583
-0.026673817
-0.024289611
-0.022025263
-0.019885901
-0.017874636
-0.015992735
-0.014239815
-0.012614045
-0.011112363
-0.0097306824
-0.0084640942
-0.0073070513
-0.0062535357
-0.005297142
-0.004431194
-0.0036485345
-0.0029411652
-0.002301596
-0.0017078676
-0.0011914321
-0.00051854117
-0.00061690656
-0.06170856
-0.06261628
-0.063609022
-0.064784957
-0.06573096
-0.066319578
-0.066612824
-0.066652484
-0.066432415
-0.065942687
-0.065187347
-0.064177928
-0.062927297
-0.061449568
-0.059761393
-0.057882023
-0.055832632
-0.053635741
-0.0513148
-0.048893836
-0.046397094
-0.043848529
-0.041271353
-0.038687704
-0.036118334
-0.033582355
-0.031097024
-0.028677592
-0.026337213
-0.024086906
-0.021935564
-0.019890014
-0.017955108
-0.016133859
-0.01442759
-0.012836107
-0.011357888
-0.0099902685
-0.0087296248
-0.0075715475
-0.0065109915
-0.0055423722
-0.0046596118
-0.0038561243
-0.0031239641
-0.0024566178
-0.0018314173
-0.0012829135
-0.00058836374
-0.00061937362
-0.053111182
-0.054155511
-0.055271441
-0.056539446
-0.0576195
-0.058402329
-0.058934133
-0.059245809
-0.05932917
-0.059172595
-0.058775915
-0.058145468
-0.057289142
-0.056216263
-0.054938684
-0.053470895
-0.051829526
-0.050032884
-0.04810063
-0.046053422
-0.043912548
-0.041699552
-0.039435804
-0.037142119
-0.034838428
-0.032543493
-0.030274652
-0.02804762
-0.02587634
-0.023772886
-0.021747421
-0.019808191
-0.017961573
-0.016212157
-0.014562849
-0.013015015
-0.011568628
-0.010222431
-0.0089740991
-0.0078203924
-0.0067572906
-0.0057800901
-0.0048834134
-0.0040612928
-0.0033061542
-0.0026121124
-0.0019576327
-0.0013756892
-0.00066805321
-0.00060296594
-0.04531798
-0.046434632
-0.04761451
-0.048923576
-0.050082433
-0.05099788
-0.05170406
-0.052223426
-0.052546443
-0.05266041
-0.052561931
-0.052253145
-0.051737724
-0.051020793
-0.050109869
-0.049015025
-0.047748542
-0.046324562
-0.044758835
-0.043068451
-0.0412715
-0.039386729
-0.037433192
-0.03542988
-0.033395383
-0.031347581
-0.029303373
-0.027278441
-0.025287055
-0.023341927
-0.021454117
-0.019632975
-0.017886137
-0.016219551
-0.014637546
-0.013142922
-0.011737066
-0.010420084
-0.0091909304
-0.0080475458
-0.0069869675
-0.0060054212
-0.0050983153
-0.0042603612
-0.0034845902
-0.0027655788
-0.002083962
-0.0014684929
-0.00075100357
-0.00057748404
-0.038287572
-0.039428747
-0.040627465
-0.041937836
-0.04313094
-0.04412783
-0.044953544
-0.045624127
-0.046129402
-0.046456244
-0.046598987
-0.046556554
-0.04632925
-0.04591871
-0.045328724
-0.044565448
-0.043637182
-0.04255413
-0.041328235
-0.039972971
-0.038503094
-0.036934336
-0.035283102
-0.033566158
-0.031800305
-0.03000207
-0.028187426
-0.026371537
-0.024568535
-0.022791335
-0.021051495
-0.019359116
-0.017722783
-0.01614955
-0.014644955
-0.013213068
-0.011856573
-0.010576851
-0.0093740938
-0.0082474032
-0.0071948862
-0.0062137319
-0.0053002004
-0.0044497473
-0.0036561679
-0.0029144624
-0.0022078187
-0.001559806
-0.00083169669
-0.00055154376
-0.031972523
-0.033103927
-0.034288542
-0.035570771
-0.036763698
-0.037800973
-0.038700866
-0.039474666
-0.040112167
-0.04060041
-0.040932323
-0.041104546
-0.041114863
-0.040962179
-0.04064725
-0.040172922
-0.039544014
-0.038767182
-0.037850815
-0.036804916
-0.035640917
-0.034371452
-0.033010101
-0.031571126
-0.030069195
-0.02851909
-0.026935431
-0.025332421
-0.023723604
-0.022121666
-0.020538255
-0.018983841
-0.017467624
-0.015997465
-0.01457986
-0.01321995
-0.011921547
-0.010687197
-0.0095182418
-0.0084149019
-0.0073763398
-0.0064007223
-0.0054852062
-0.0046260491
-0.0038179068
-0.0030562446
-0.0023267354
-0.0016480104
-0.00090633938
-0.00053118582
-0.026322779
-0.027420949
-0.028568561
-0.029802045
-0.030969405
-0.032015335
-0.032953137
-0.033790649
-0.034518104
-0.035123184
-0.035598142
-0.035938154
-0.036139269
-0.036198408
-0.036114002
-0.035886247
-0.035517069
-0.035010062
-0.034370456
-0.033605063
-0.032722163
-0.03173135
-0.03064334
-0.029469762
-0.028222922
-0.026915565
-0.025560618
-0.024170939
-0.022759088
-0.021337108
-0.019916333
-0.018507223
-0.017119231
-0.015760705
-0.014438818
-0.013159535
-0.011927605
-0.010746575
-0.0096188276
-0.0085456207
-0.0075271315
-0.0065624944
-0.0056497829
-0.0047860991
-0.0039670075
-0.0031885164
-0.0024384774
-0.0017315331
-0.00097298794
-0.00051928927
-0.021287962
-0.022337946
-0.023433736
-0.024605175
-0.025729293
-0.026760393
-0.027708149
-0.028577934
-0.029360746
-0.030045243
-0.030623575
-0.031090133
-0.031439912
-0.031668526
-0.031772755
-0.031750801
-0.03160231
-0.031328367
-0.030931518
-0.030415774
-0.029786559
-0.029050618
-0.0282159
-0.027291396
-0.026286967
-0.025213142
-0.024080909
-0.02290149
-0.021686123
-0.020445848
-0.019191314
-0.017932598
-0.016679052
-0.015439176
-0.014220514
-0.013029588
-0.01187185
-0.010751662
-0.0096722927
-0.0086359298
-0.0076436911
-0.0066956407
-0.0057907615
-0.0049270198
-0.0041009017
-0.0033090427
-0.0025411035
-0.0018089471
-0.0010311921
-0.00051588081
-0.016819259
-0.01781264
-0.018848126
-0.019950059
-0.021019625
-0.022019431
-0.022956493
-0.02383444
-0.024645223
-0.025378681
-0.026027275
-0.026585134
-0.027046751
-0.027407008
-0.027661629
-0.027807431
-0.027842372
-0.027765592
-0.027577471
-0.027279672
-0.026875142
-0.026368083
-0.02576388
-0.025069011
-0.024290921
-0.023437874
-0.022518786
-0.021543047
-0.020520319
-0.019460352
-0.018372786
-0.017266983
-0.016151856
-0.015035727
-0.013926202
-0.012830075
-0.011753248
-0.01070068
-0.0096763471
-0.0086832229
-0.0077232628
-0.0067973924
-0.0059054673
-0.0050463118
-0.0042173215
-0.00341583
-0.0026329869
-0.0018790227
-0.0010813716
-0.00051909072
-0.012870476
-0.013803751
-0.014775312
-0.015804849
-0.016813681
-0.017771557
-0.018683525
-0.019551974
-0.020369882
-0.021128362
-0.021820454
-0.0224404
-0.022982612
-0.023441689
-0.023812799
-0.024091896
-0.024275787
-0.024362202
-0.024349864
-0.024238568
-0.024029214
-0.023723826
-0.023325526
-0.022838497
-0.022267909
-0.021619821
-0.020901062
-0.020119091
-0.019281845
-0.018397572
-0.017474658
-0.016521466
-0.015546174
-0.014556623
-0.013560185
-0.012563638
-0.011573076
-0.010593816
-0.0096303399
-0.0086862414
-0.00776418
-0.0068658465
-0.0059919037
-0.0051420004
-0.0043144107
-0.0035072144
-0.0027128237
-0.0019407485
-0.0011242116
-0.00052629941
-0.0093996006
-0.010272805
-0.011180394
-0.01213806
-0.01308394
-0.013993899
-0.014871502
-0.015718235
-0.016528101
-0.017293486
-0.018008157
-0.018666715
-0.019263781
-0.019794006
-0.020252385
-0.020634431
-0.020936263
-0.021154663
-0.021287177
-0.02133219
-0.021288997
-0.021157841
-0.020939932
-0.020637451
-0.020253516
-0.019792135
-0.019258131
-0.018657049
-0.01799504
-0.017278732
-0.016515091
-0.015711274
-0.014874481
-0.014011815
-0.013130141
-0.012235962
-0.011335299
-0.010433596
-0.0095356253
-0.0086454135
-0.0077661718
-0.0069002344
-0.0060489811
-0.005212826
-0.0043908742
-0.0035819738
-0.0027796604
-0.001993352
-0.0011602853
-0.00053504981
-0.0063686311
-0.0071844294
-0.0080306991
-0.008919664
-0.0098035235
-0.010663358
-0.011501582
-0.012319008
-0.013110595
-0.013869937
-0.014591586
-0.015270637
-0.015902099
-0.016480904
-0.017002142
-0.017461214
-0.017853903
-0.018176443
-0.018425606
-0.01859879
-0.018694096
-0.018710386
-0.01864733
-0.018505432
-0.018286043
-0.017991346
-0.017624325
-0.017188708
-0.016688899
-0.016129883
-0.015517125
-0.014856447
-0.014153905
-0.013415662
-0.012647859
-0.011856487
-0.011047269
-0.010225543
-0.0093961631
-0.0085633986
-0.0077308452
-0.0069013419
-0.0060768743
-0.0052585404
-0.0044462132
-0.0036395027
-0.002832985
-0.0020363633
-0.0011899679
-0.00054352883
-0.0037453579
-0.0045079563
-0.0052972308
-0.006122336
-0.0069472278
-0.0077574191
-0.0085544147
-0.0093384968
-0.010105481
-0.010850061
-0.011567561
-0.012253626
-0.012903746
-0.013513262
-0.014077537
-0.014592082
-0.015052614
-0.015455117
-0.015795923
-0.016071796
-0.016280008
-0.016418408
-0.01648548
-0.016480394
-0.016403041
-0.016254046
-0.016034776
-0.015747317
-0.015394439
-0.014979546
-0.014506605
-0.013980056
-0.013404721
-0.012785694
-0.01212823
-0.011437626
-0.010719111
-0.0099777227
-0.0092181997
-0.0084448707
-0.0076615488
-0.0068714312
-0.0060769851
-0.0052798942
-0.0044807218
-0.0036798064
-0.0028727039
-0.0020695917
-0.0012134594
-0.00055060984
-0.0015041108
-0.002219312
-0.0029575439
-0.0037253358
-0.0044964069
-0.0052599836
-0.006016832
-0.0067668024
-0.0075064481
-0.0082314299
-0.0089377825
-0.0096216956
-0.010279167
-0.010905998
-0.011497924
-0.0120507
-0.012560156
-0.013022243
-0.013433105
-0.01378915
-0.014087126
-0.014324185
-0.014497954
-0.01460659
-0.01464883
-0.014624033
-0.014532204
-0.01437401
-0.014150767
-0.013864428
-0.013517544
-0.013113212
-0.012655008
-0.012146907
-0.01159319
-0.010998347
-0.010366972
-0.00970365
-0.0090128439
-0.0082987815
-0.0075653397
-0.0068159307
-0.0060533759
-0.0052798355
-0.0044964723
-0.0037042932
-0.0028997696
-0.002093616
-0.0012312667
-0.00055592014
0.00037921658
-0.00029440819
-0.00098780682
-0.0017051321
-0.0024281571
-0.0031492163
-0.0038684747
-0.0045854165
-0.0052972072
-0.0060003279
-0.0066914394
-0.007367232
-0.0080241851
-0.0086585617
-0.0092664962
-0.0098440586
-0.010387291
-0.010892249
-0.01135506
-0.011771981
-0.012139466
-0.012454229
-0.012713309
-0.012914132
-0.013054569
-0.013132989
-0.013148304
-0.013099999
-0.012988154
-0.012813455
-0.012577181
-0.012281189
-0.01192787
-0.011520097
-0.011061162
-0.010554696
-0.010004577
-0.0094148353
-0.0087895414
-0.0081326948
-0.0074481049
-0.00673927
-0.0060092431
-0.0052605487
-0.0044948482
-0.0037137363
-0.0029145182
-0.0021084269
-0.001243206
-0.00055896336
0.001901808
0.0012619618
0.00060537816
-7.0345182e-05
-0.00075339895
-0.0014385619
-0.0021255029
-0.0028134093
-0.0034999366
-0.0041822303
-0.0048574692
-0.0055227703
-0.0061750347
-0.0068109424
-0.0074270075
-0.0080196205
-0.0085850756
-0.0091196034
-0.0096194144
-0.010080749
-0.010499934
-0.010873434
-0.011197921
-0.011470327
-0.01168791
-0.01184831
-0.011949606
-0.011990361
-0.011969662
-0.01188715
-0.011743034
-0.011538093
-0.011273671
-0.010951649
-0.010574398
-0.010144724
-0.009665798
-0.0091410685
-0.0085741648
-0.0079687894
-0.0073285997
-0.0066570861
-0.0059574321
-0.0052324237
-0.0044841176
-0.0037145998
-0.0029219049
-0.0021177126
-0.0012518817
-0.00056105427
0.0031044255
0.0024923559
0.0018659051
0.0012242972
0.00057431698
-8.0772311e-05
-0.00074025473
-0.001403067
-0.0020672356
-0.0027304239
-0.0033902209
-0.0040440874
-0.0046892706
-0.0053228002
-0.0059415186
-0.0065421073
-0.0071211061
-0.0076749384
-0.0081999442
-0.0086924206
-0.0091486667
-0.009565034