/*--------------------------------*- C++ -*----------------------------------*\
  =========                 |
  \\      /  F ield         | OpenFOAM: The Open Source CFD Toolbox
   \\    /   O peration     | Website:  https://openfoam.org
    \\  /    A nd           | Version:  6
     \\/     M anipulation  |
\*---------------------------------------------------------------------------*/
FoamFile
{
    version     2.0;
    format      ascii;
    class       surfaceScalarField;
    location    "120";
    object      phi;
}
// * * * * * * * * * * * * * * * * * * * * * * * * * * * * * * * * * * * * * //

dimensions      [0 3 -1 0 0 0 0];

internalField   nonuniform List<scalar> 
18180
(
0.00031873647
-0.00016317442
-0.00015556207
0.0013092399
-0.0013669749
0.00037647143
0.0030329536
-0.0033337396
0.001610026
0.0055498928
-0.0059761549
0.0034592156
0.0089183865
-0.0092393663
0.0058708726
0.013193089
-0.013079921
0.0088052184
0.018422323
-0.017460351
0.012231118
0.024645107
-0.022346441
0.016123657
0.031888008
-0.0277041
0.020461199
0.040162067
-0.033496742
0.025222683
0.04946011
-0.039683531
0.030385489
0.059754824
-0.046218463
0.035923749
0.070997991
-0.053050265
0.041807097
0.083121345
-0.060123159
0.047999806
0.096039651
-0.067378565
0.054460259
0.10965655
-0.07475787
0.061140974
0.12387256
-0.082206093
0.067990083
0.13860032
-0.089676194
0.074948427
0.15383841
-0.097151042
0.08191295
-0.10462826
0.088681244
0.16978543
0.00039750528
-0.00056067972
0.0016096272
-0.0025790969
0.0036893914
-0.0054135038
0.0066875747
-0.0089743382
0.010650858
-0.013202649
0.015618166
-0.01804723
0.021616662
-0.023458847
0.028657779
-0.029387559
0.036733595
-0.035779916
0.045813929
-0.042577075
0.055844606
-0.049714209
0.066747248
-0.057121105
0.078420819
-0.064723835
0.090745027
-0.072447368
0.10358538
-0.080218916
0.11679926
-0.087971748
0.13024212
-0.095648956
0.14377427
-0.10320835
0.15725978
-0.11063655
-0.11786406
0.17049558
0.0004806326
-0.0010413123
0.001918734
-0.0040171982
0.0043525583
-0.0078473282
0.0078167036
-0.012438483
0.012337881
-0.017723827
0.017929515
-0.023638863
0.024586659
-0.030115991
0.03228173
-0.03708263
0.040961474
-0.044459659
0.050545665
-0.052161266
0.060927912
-0.060096456
0.071978734
-0.068171927
0.083550788
-0.076295889
0.095485834
-0.084382413
0.10762271
-0.092355792
0.11980524
-0.10015428
0.13188891
-0.10773263
0.14374428
-0.11506371
0.15524936
-0.12214163
-0.12891628
0.16630158
0.0005661797
-0.001607492
0.0022279807
-0.0056789993
0.0050006951
-0.010620043
0.0088941562
-0.016331945
0.013905479
-0.02273515
0.02001219
-0.029745574
0.027166889
-0.037270691
0.035293914
-0.045209654
0.044288445
-0.053454191
0.054018445
-0.061891266
0.06432945
-0.070407462
0.0750519
-0.078894377
0.086010303
-0.087254292
0.097033255
-0.095405365
0.10796317
-0.1032857
0.11866457
-0.11085569
0.12903014
-0.1180982
0.13898331
-0.12501689
0.14847509
-0.1316334
-0.137947
0.15750581
0.00065089692
-0.002258389
0.0025243816
-0.007552484
0.0056037205
-0.013699382
0.0098646115
-0.020592836
0.01526483
-0.028135368
0.021736707
-0.036217451
0.029182858
-0.044716842
0.037475346
-0.053502142
0.046458518
-0.062437363
0.0559554
-0.071388147
0.065777017
-0.080229079
0.075733592
-0.088850953
0.085646262
-0.097166962
0.095357874
-0.10511698
0.10474159
-0.11266942
0.11370645
-0.11982054
0.12219948
-0.12659123
0.13020452
-0.13302192
0.13773778
-0.13916666
-0.14506919
0.14485997
0.00073064689
-0.0029890359
0.0027921267
-0.0096139638
0.0061266597
-0.017033915
0.010666854
-0.02513303
0.016322857
-0.033791371
0.022975517
-0.042870111
0.030474764
-0.05221609
0.038642785
-0.061670163
0.047281609
-0.071076187
0.056184166
-0.080290705
0.065147305
-0.089192217
0.073984975
-0.097688624
0.082539789
-0.10572178
0.090691511
-0.1132687
0.098361545
-0.12033946
0.10551325
-0.12697225
0.11214859
-0.13322657
0.11830204
-0.13917537
0.1240331
-0.14489772
-0.15046475
0.12942866
0.0008007423
-0.0037897782
0.0030139557
-0.011827177
0.0065329759
-0.020552935
0.011240184
-0.029840239
0.016992884
-0.03954407
0.023618783
-0.04949601
0.030918495
-0.059515802
0.038673624
-0.069425292
0.046659085
-0.079061647
0.054657692
-0.088289311
0.062474709
-0.097009235
0.069950136
-0.10516405
0.076967051
-0.11273869
0.083455076
-0.11975672
0.089388959
-0.12627334
0.094783024
-0.13236632
0.099682871
-0.13812641
0.10415591
-0.14364842
0.10828237
-0.14902418
-0.15433487
0.11215249
0.00085606948
-0.0046458476
0.003172098
-0.014143206
0.0067873005
-0.024168137
0.01152992
-0.034582858
0.017203593
-0.045217744
0.023586742
-0.055879159
0.03044009
-0.06636915
0.037519547
-0.076504749
0.044591998
-0.086134099
0.05145116
-0.095148473
0.057930723
-0.1034888
0.06391278
-0.11114611
0.069330543
-0.11815645
0.074165474
-0.12459165
0.07843991
-0.13054777
0.082206861
-0.13613327
0.085538893
-0.14145845
0.08851782
-0.14662734
0.091226485
-0.15173284
-0.15685322
0.093744839
0.00089027236
-0.00553612
0.0032483168
-0.01650125
0.0068576872
-0.027777508
0.011492562
-0.039217733
0.016906936
-0.050632117
0.02283904
-0.061811262
0.029023816
-0.072553926
0.035209379
-0.082690311
0.041174017
-0.092098737
0.046740424
-0.10071488
0.051784603
-0.10853298
0.056238258
-0.11559976
0.060084882
-0.12200308
0.063350875
-0.12785765
0.066093723
-0.13329062
0.068389445
-0.13842899
0.070321194
-0.14339019
0.071970389
-0.14827654
0.073410961
-0.15317342
-0.15814876
0.074706498
0.00089982712
-0.0064359471
0.0032334092
-0.018834832
0.0067292172
-0.031273316
0.011111252
-0.043599768
0.016092576
-0.055613441
0.021384715
-0.067103402
0.026713961
-0.077883172
0.031839157
-0.087815507
0.036567071
-0.096826652
0.040762184
-0.10490999
0.044349299
-0.11212009
0.047309076
-0.11855954
0.049668027
-0.12436203
0.051485327
-0.12967495
0.052838928
-0.13464422
0.053813115
-0.13940318
0.054488899
-0.14406598
0.054937903
-0.14872554
0.055219526
-0.15345504
0.055379855
-0.15830909
-0.00020238259
0.00020238259
1.4841974e-11
-0.00067776036
0.00047537773
3.3340493e-11
-0.0013424523
0.0006646919
4.052776e-11
-0.0021323348
0.00078988246
3.9684249e-11
-0.0029958282
0.00086349328
3.8754989e-11
-0.003890809
0.00089498075
3.5568422e-11
-0.0047823763
0.00089156733
3.4669629e-11
-0.0056409828
0.00085860645
3.1741425e-11
-0.0064409638
0.00079998095
3.064241e-11
-0.0071593865
0.00071842268
2.8543812e-11
-0.0077751316
0.0006157451
2.8526194e-11
-0.008268158
0.00049302636
2.9176713e-11
-0.008618923
0.0003507649
3.2120415e-11
-0.0088079488
0.0001890258
3.6585969e-11
-0.0088155678
7.6188844e-06
4.3082967e-11
-0.0086219456
-0.0001936222
5.1186051e-11
-0.0082073456
-0.00041460007
6.0468136e-11
-0.0075517231
-0.00065562261
7.1085772e-11
-0.0066343198
-0.00091740343
8.200197e-11
-0.0011863387
-0.0054479812
9.273703e-11
-0.00018797829
0.0003903609
-0.00062501916
0.00091241859
-0.0012287761
0.0012684488
-0.0019352289
0.0014963353
-0.0026921847
0.0016204491
-0.003456339
0.001659135
-0.0041911289
0.0016263572
-0.0048649237
0.0015324013
-0.0054495874
0.0013846447
-0.0059193432
0.0011881784
-0.0062498581
0.00094625998
-0.0064175012
0.00066066945
-0.0063987388
0.00033200252
-0.0061696554
-4.005765e-05
-0.0057056283
-0.00045640822
-0.0049812477
-0.00091800279
-0.0039705325
-0.0014253153
-0.0026468508
-0.0019793043
-0.00098277043
-0.0025814838
-0.0032020376
0.0010329285
-0.00015893068
0.0005492916
-0.00051890007
0.001272388
-0.0010007855
0.0017503342
-0.0015412813
0.002036831
-0.0020873762
0.002166544
-0.0025937629
0.0021655217
-0.0030208928
0.0020534872
-0.0033333096
0.001844818
-0.0034983026
0.0015496377
-0.0034848316
0.0011747074
-0.0032626422
0.00072407063
-0.0028015467
0.00019957386
-0.0020707895
-0.00039875465
-0.0010385341
-0.0010723131
0.00032856704
-0.0018235093
0.0020656485
-0.0026550843
0.0042095921
-0.0035692589
0.0067987203
-0.0045684325
0.0098727277
-0.0056554913
-0.0067802076
0.013450898
-0.00011756845
0.00066686007
-0.00036700244
0.001521822
-0.00067351916
0.002056851
-0.00097483043
0.0023381422
-0.0012168543
0.0024085678
-0.0013515847
0.0023002521
-0.0013354341
0.0020373366
-0.0011277785
0.0016371624
-0.00068976107
0.0011116203
1.6659968e-05
0.00046828634
0.0010294957
-0.00028876514
0.0023873734
-0.0011583039
0.0041300818
-0.002141463
0.0062990523
-0.0032412836
0.0089378656
-0.0044623227
0.012092808
-0.0058100268
0.015813247
-0.0072896974
0.020151328
-0.0089065135
0.025161765
-0.010665929
-0.012493374
0.030874932
-6.6907649e-05
0.00073376773
-0.00017916508
0.0016340794
-0.00026652798
0.0021442138
-0.00026767678
0.002339291
-0.00012716472
0.0022680557
0.00020621884
0.0019668685
0.00078077707
0.0014627783
0.0016430751
0.00077486437
0.0028389098
-8.4214425e-05
0.0044140955
-0.0011068993
0.0064150276
-0.0022896973
0.0088890991
-0.0036323754
0.011885026
-0.0051373896
0.015453176
-0.0068094337
0.019645944
-0.0086550912
0.024518373
-0.010682455
0.030129027
-0.012900352
0.036540508
-0.015317994
0.043820215
-0.017945636
-0.02068364
0.052010481
-9.983156e-06
0.00074375089
3.4541847e-05
0.0015895544
0.00019990772
0.001978848
0.00054680069
0.001992398
0.0011323078
0.0016825486
0.0020110774
0.0010880988
0.0032362836
0.00023757214
0.0048605087
-0.00084936078
0.0069364014
-0.0021601071
0.0095170504
-0.0036875484
0.012656194
-0.0054288404
0.016408322
-0.0073845036
0.020828606
-0.0095576739
0.025972736
-0.011953563
0.031896821
-0.014579176
0.038657692
-0.017443326
0.046314081
-0.020556741
0.054928689
-0.023932602
0.064572011
-0.027588958
-0.031407064
0.075295435
5.0754142e-05
0.00069299675
0.00026566975
0.0013746388
0.00070828306
0.0015362347
0.0014390847
0.0012615964
0.0025169108
0.00060472249
0.0039997052
-0.0003946956
0.0059451156
-0.0017078382
0.0084108823
-0.0033151275
0.011454969
-0.0052041938
0.015135531
-0.0073681107
0.019510649
-0.0098039578
0.024637797
-0.012511652
0.030573113
-0.01549299
0.037370496
-0.018750947
0.045080674
-0.022289355
0.053750659
-0.026113311
0.06342456
-0.030230642
0.074146975
-0.034655017
0.085971933
-0.039413916
-0.044390318
0.098955187
0.00011380035
0.0005791964
0.00050852007
0.00097991909
0.0012460213
0.00079873342
0.0023868499
0.0001207678
0.0039913591
-0.00099978665
0.0061200542
-0.0025233907
0.0088335738
-0.0044213578
0.012192512
-0.0066740662
0.016257016
-0.0092686975
0.021086036
-0.012197131
0.026736292
-0.015454213
0.033260943
-0.019036303
0.040708002
-0.022940049
0.049118528
-0.027161473
0.058524729
-0.031695556
0.068948337
-0.036536919
0.080400427
-0.041682732
0.092884533
-0.047139123
0.10640815
-0.052937535
-0.058997763
0.1210156
0.00017850094
0.00040069545
0.00076005075
0.00039836928
0.0018053872
-0.000246603
0.0033748023
-0.0014486473
0.0055291386
-0.003154123
0.0083295327
-0.0053237848
0.01183679
-0.0079286155
0.016110464
-0.01094774
0.021207572
-0.014365806
0.027180977
-0.018170535
0.034077454
-0.02235069
0.041935494
-0.026894343
0.050782875
-0.031787429
0.060634018
-0.037012616
0.071487144
-0.042548682
0.083321261
-0.048371036
0.096093957
-0.054455428
0.10974274
-0.060787906
0.12419852
-0.067393313
-0.074276889
0.13947764
0.00024513336
0.0010199741
0.002383397
0.0043939654
0.0071107151
0.010592149
0.014894651
0.020070568
0.026165961
0.033218109
0.041252907
0.050282313
0.060301981
0.07128917
0.083200748
0.095970686
0.10950534
0.12366586
0.1381855
0.15258985
-0.0035072258
-0.0019407555
1.3847281e-10
-0.0012852923
-0.0022219337
1.5235465e-10
0.0011954855
-0.0024807779
1.63161e-10
0.0038782074
-0.0026827221
1.7022206e-10
0.00673607
-0.0028578628
1.724413e-10
0.0097517684
-0.0030156985
1.699108e-10
0.012906369
-0.0031546004
1.5737019e-10
0.016181849
-0.0032754802
1.352674e-10
0.019562508
-0.0033806592
1.0190242e-10
0.023034128
-0.0034716201
5.6498049e-11
0.026583423
-0.0035492953
-3.0535418e-12
0.030197969
-0.0036145465
-7.689661e-11
0.033866125
-0.0036681554
-1.657399e-10
0.037576894
-0.003710769
-2.677032e-10
0.041319827
-0.0037429322
-3.8103089e-10
0.045084952
-0.0037651246
-5.0107145e-10
0.04886273
-0.0037777777
-6.2316978e-10
0.052644019
-0.0037812882
-7.3953358e-10
0.056420053
-0.003776033
-8.421929e-10
0.060182434
-0.0037623799
-9.2002583e-10
0.063923132
-0.0037406973
-9.6232438e-10
0.067634493
-0.0037113595
-9.56003e-10
0.071309245
-0.0036747515
-8.9013878e-10
0.074940516
-0.0036312705
-7.5317979e-10
0.078521843
-0.0035813264
-5.3904394e-10
0.082047184
-0.0035253406
-2.4384044e-10
0.085510928
-0.0034637437
1.2612713e-10
0.0889079
-0.0033969728
5.5943767e-10
0.092233366
-0.0033254676
1.0296338e-09
0.095483032
-0.0032496672
1.5045657e-09
0.098653037
-0.0031700063
1.9351361e-09
0.10173995
-0.0030869122
2.2723738e-09
0.10474075
-0.0030008017
2.4548053e-09
0.10765282
-0.0029120794
2.4364885e-09
0.11047396
-0.0028211361
2.1711038e-09
0.1132023
-0.0027283491
1.6519194e-09
0.11583639
-0.0026340829
8.854346e-10
0.11837508
-0.002538692
-5.9134893e-11
0.12081761
-0.0024425281
-1.0978929e-09
0.12316355
-0.0023459407
-2.0807998e-09
0.12541287
-0.0022493197
-2.8703173e-09
0.1275659
-0.0021530204
-3.3057082e-09
0.12962364
-0.002057739
-3.2779386e-09
0.13158711
-0.0019634671
-2.7050517e-09
0.13346045
-0.0018733449
-1.6117418e-09
0.13524223
-0.0017817749
-1.3164702e-10
0.13695702
-0.0017147934
1.5696873e-09
0.13856066
-0.001603638
3.0858188e-09
0.14025437
-0.0016937173
4.4039656e-09
-0.001339133
3.9352392e-09
0.0028536762
-0.0037615032
0.004950972
-0.0043192295
0.0072939987
-0.0048238047
0.0098203135
-0.0052090368
0.012508855
-0.0055464047
0.0153473
-0.0058541432
0.018318907
-0.0061262075
0.021407271
-0.006363844
0.024598373
-0.0065717614
0.027879452
-0.006752699
0.031238377
-0.0069082198
0.034663667
-0.0070398363
0.038144466
-0.0071489546
0.041670429
-0.0072367321
0.045231639
-0.0073041425
0.048818565
-0.0073520499
0.052422027
-0.0073812403
0.056033184
-0.0073924449
0.059643517
-0.0073863656
0.063244834
-0.0073636972
0.066829278
-0.0073251415
0.070389338
-0.007271419
0.073917862
-0.0072032754
0.077408075
-0.0071214844
0.080853597
-0.0070268476
0.084248448
-0.0069201917
0.087587067
-0.0068023631
0.090864317
-0.0066742226
0.094075487
-0.0065366374
0.097216294
-0.0063904742
0.10028288
-0.0062365923
0.1032718
-0.0060758362
0.10618003
-0.005909031
0.10900493
-0.0057369778
0.11174425
-0.0055604513
0.1143961
-0.0053801998
0.11695896
-0.0051969473
0.11943167
-0.005011398
0.12181339
-0.0048242522
0.12410366
-0.0046362053
0.12630237
-0.0044480359
0.1284098
-0.0042604526
0.13042691
-0.0040748455
0.13235465
-0.0038912015
0.13419707
-0.0037157688
0.13595275
-0.0035374515
0.1376458
-0.0034078465
0.1392331
-0.0031909345
0.14091067
-0.0033712946
-0.0026758046
0.015022375
-0.00533298
0.016853629
-0.0061504842
0.018907337
-0.0068775126
0.021113569
-0.0074152689
0.023460691
-0.0078935271
0.025945052
-0.0083385042
0.028554035
-0.0087351897
0.031274159
-0.009083968
0.034094325
-0.0093919275
0.037004304
-0.009662678
0.039993976
-0.009897892
0.043053482
-0.010099342
0.046173297
-0.01026877
0.049344168
-0.010407603
0.052557067
-0.010517041
0.055803183
-0.010598166
0.059073927
-0.010651985
0.062360939
-0.010679457
0.065656099
-0.010681525
0.068951542
-0.010659141
0.072239684
-0.010613283
0.07551324
-0.010544975
0.078765247
-0.010455282
0.081989086
-0.010345324
0.085178505
-0.010216266
0.088327628
-0.010069315
0.091430976
-0.0099057107
0.094483471
-0.009726718
0.097480446
-0.009533612
0.10041764
-0.0093276708
0.10329121
-0.0091101608
0.1060977
-0.0088823298
0.10883407
-0.0086453975
0.11149764
-0.008400549
0.11408612
-0.0081489324
0.11659758
-0.0078916569
0.11903043
-0.0076297981
0.12138344
-0.0073644037
0.1236557
-0.0070965166
0.12584667
-0.0068271751
0.12795618
-0.0065575433
0.12998441
-0.0062886827
0.13193223
-0.0060226708
0.13380054
-0.0057595057
0.13559323
-0.0055084604
0.13730896
-0.0052531862
0.1389709
-0.005069783
0.14053824
-0.0047582704
0.1421964
-0.005029458
-0.0040207183
0.03205837
-0.0065164187
0.033473726
-0.0075658399
0.035079402
-0.0084831881
0.036802421
-0.009138288
0.03864347
-0.0097345762
0.040608847
-0.010303882
0.042691382
-0.010817725
0.044881553
-0.011274138
0.047171783
-0.011682158
0.049554846
-0.012045741
0.052023036
-0.012366081
0.054568396
-0.012644703
0.057182918
-0.012883292
0.059858559
-0.013083245
0.062587259
-0.013245741
0.065360975
-0.013371882
0.068171727
-0.013462737
0.07101164
-0.01351937
0.073872981
-0.013542867
0.076748203
-0.013534362
0.079629974
-0.013495054
0.082511217
-0.013426217
0.08538514
-0.013329205
0.088245264
-0.013205448
0.091085449
-0.013056451
0.09389991
-0.012883777
0.09668324
-0.012689041
0.099430413
-0.012473891
0.1021368
-0.012239996
0.10479815
-0.011989028
0.10741064
-0.011722647
0.1099708
-0.011442489
0.11247556
-0.011150157
0.11492222
-0.010847209
0.11730844
-0.010535154
0.11963224
-0.010215455
0.12189197
-0.0098895312
0.12408634
-0.009558768
0.12621437
-0.0092245461
0.12827544
-0.0088882446
0.1302693
-0.0085514102
0.13219608
-0.0082154585
0.13405655
-0.0078831461
0.13585155
-0.0075545068
0.13758481
-0.0072417153
0.13925516
-0.0069235373
0.14088439
-0.0066990128
0.14243517
-0.0063090513
0.14407766
-0.0066719513
-0.0053897761
0.052650923
-0.0071568607
0.053491666
-0.0084065832
0.054485947
-0.0094774691
0.055568079
-0.01022042
0.056752881
-0.010919378
0.058054647
-0.011605648
0.05947189
-0.012234967
0.060999741
-0.01280199
0.062633992
-0.013316409
0.064370046
-0.013781795
0.066202383
-0.014198418
0.068124734
-0.014567054
0.070130337
-0.014888894
0.07221209
-0.015164998
0.074362648
-0.015396299
0.076574499
-0.015583733
0.078840053
-0.01572829
0.081151717
-0.015831034
0.083501964
-0.015893114
0.085883394
-0.015915792
0.088288783
-0.015900443
0.090711131
-0.015848566
0.093143703
-0.015761776
0.095580058
-0.015641804
0.098014088
-0.015490481
0.10044003
-0.015309717
0.10285248
-0.015101496
0.10524644
-0.014867843
0.10761726
-0.014610815
0.1099607
-0.014332471
0.11227291
-0.01403486
0.11455042
-0.013720001
0.11679014
-0.013389876
0.11898934
-0.013046407
0.12114565
-0.012691464
0.12325706
-0.012326861
0.12532188
-0.011954354
0.12733878
-0.011575666
0.12930675
-0.011192516
0.13122512
-0.010806622
0.13309363
-0.010419916
0.13491234
-0.010034171
0.13668201
-0.0096528145
0.13840345
-0.009275947
0.14008023
-0.0089184905
0.14171148
-0.0085547892
0.14331732
-0.0083048499
0.14486484
-0.0078565735
0.14650531
-0.0083124193
-0.0068062257
0.075224559
-0.0070859849
0.075329667
-0.0085116906
0.075554188
-0.0097019907
0.075854643
-0.010520874
0.076259066
-0.011323802
0.076784312
-0.012130894
0.077433417
-0.012884072
0.078206312
-0.013574885
0.079101307
-0.014211403
0.080115253
-0.014795742
0.08124391
-0.015327075
0.082481981
-0.015805125
0.083823283
-0.016230197
0.085261039
-0.016602754
0.086788073
-0.016923333
0.088396933
-0.017192593
0.090080003
-0.01741136
0.091829606
-0.017580636
0.0936381
-0.017701609
0.09549795
-0.017775642
0.097401791
-0.017804284
0.099342484
-0.017789259
0.10131316
-0.017732456
0.10330727
-0.017635911
0.10531859
-0.017501795
0.10734125
-0.017332384
0.1093698
-0.017130039
0.11139913
-0.016897179
0.11342457
-0.016636257
0.11544183
-0.016349733
0.11744703
-0.016040054
0.11943666
-0.015709634
0.12140762
-0.015360834
0.12335717
-0.014995956
0.12528294
-0.014617234
0.12718291
-0.014226834
0.12905542
-0.013826861
0.13089913
-0.01341938
0.13271307
-0.01300645
0.13449659
-0.012590141
0.13624944
-0.01217277
0.13797175
-0.011756479
0.13966429
-0.011345356
0.14132795
-0.010939611
0.1429662
-0.010556734
0.14457858
-0.010167177
0.14618338
-0.0099096452
0.14775284
-0.0094260332
0.14941688
-0.0099764567
-0.0083021871
0.098028317
-0.0061591146
0.097261176
-0.0077445499
0.096585025
-0.0090258394
0.096000737
-0.0099365866
0.095544443
-0.010867507
0.095227374
-0.011813825
0.0950549
-0.012711598
0.095031024
-0.013551009
0.095155281
-0.01433566
0.095424404
-0.015064866
0.095834037
-0.015736707
0.096378769
-0.016349858
0.097052118
-0.016903546
0.097846851
-0.017397487
0.098755287
-0.017831768
0.099769455
-0.018206761
0.10088122
-0.018523125
0.1020824
-0.018781818
0.10336487
-0.018984079
0.10472064
-0.019131414
0.10614194
-0.019225576
0.10762123
-0.019268553
0.10915132
-0.019262546
0.11072535
-0.019209941
0.11233684
-0.019113285
0.11397971
-0.018975258
0.11564831
-0.018798636
0.1173374
-0.018586267
0.11904217
-0.018341033
0.12075827
-0.018065825
0.12248173
-0.017763518
0.12420904
-0.01743694
0.12593706
-0.017088863
0.12766309
-0.016721984
0.12938478
-0.016338923
0.13110016
-0.015942217
0.13280764
-0.015534335
0.13450596
-0.015117698
0.13619423
-0.014694726
0.13787193
-0.014267844
0.13953894
-0.013839777
0.1411955
-0.013413043
0.14284254
-0.012992391
0.14448111
-0.01257818
0.14611466
-0.012190289
0.14774332
-0.011795829
0.14938344
-0.011549767
0.15101292
-0.011055511
0.15273912
-0.01170266
-0.0099194231
0.11919206
-0.0043355747
0.11749957
-0.0060520603
0.11586017
-0.0073864445
0.11435778
-0.0084341909
0.11302862
-0.0095383498
0.11187021
-0.010655417
0.11088802
-0.011729407
0.11008833
-0.012751316
0.10947054
-0.013717877
0.10903008
-0.0146244
0.10876112
-0.015467749
0.10865701
-0.016245745
0.10871015
-0.016956685
0.10891223
-0.017599569
0.10925453
-0.018174068
0.10972811
-0.01868034
0.11032394
-0.019118957
0.11103302
-0.019490897
0.11184646
-0.019797524
0.1127556
-0.020040547
0.11375201
-0.020221993
0.11482763
-0.020344175
0.11597476
-0.02040967
0.11718609
-0.020421272
0.11845478
-0.020381969
0.11977441
-0.020294895
0.12113908
-0.020163303
0.12254333
-0.019990516
0.12398219
-0.019779897
0.12545118
-0.019534817
0.12694628
-0.019258617
0.12846393
-0.018954589
0.13000102
-0.018625949
0.13155486
-0.018275825
0.13312319
-0.017907255
0.13470415
-0.017523178
0.13629627
-0.017126456
0.13789847
-0.016719891
0.13951002
-0.016306284
0.14113063
-0.015888447
0.14276037
-0.015469521
0.14439976
-0.015052428
0.14604994
-0.014642579
0.14771229
-0.014240524
0.14939035
-0.013868353
0.15108491
-0.013490391
0.15281051
-0.013275363
0.15455091
-0.012795908
0.1563908
-0.013542556
-0.011709278
0.13689875
-0.0017566846
0.13438088
-0.0035341909
0.13182242
-0.0048279806
0.12946547
-0.0060772405
0.12733724
-0.0074101196
0.1254191
-0.0087372821
0.1237139
-0.010024199
0.1222267
-0.011264124
0.12095598
-0.012447151
0.11989595
-0.013564369
0.11903911
-0.014610908
0.11837711
-0.015583749
0.11790096
-0.016480539
0.11760114
-0.017299747
0.11746778
-0.018040706
0.11749086
-0.018703425
0.11766038
-0.019288473
0.11796641
-0.019796929
0.11839923
-0.020230341
0.11894938
-0.020590694
0.11960774
-0.020880353
0.12036559
-0.021102027
0.12121465
-0.021258732
0.12214712
-0.02135374
0.12315569
-0.021390542
0.1242336
-0.0213728
0.12537459
-0.021304299
0.12657299
-0.021188908
0.12782362
-0.021030531
0.12912188
-0.020833075
0.13046367
-0.020600408
0.13184541
-0.020336333
0.13326403
-0.020044564
0.13471691
-0.019728709
0.13620192
-0.019392264
0.13771736
-0.019038614
0.13926195
-0.018671052
0.14083485
-0.018292794
0.14243563
-0.017907059
0.14406425
-0.017517071
0.14572115
-0.017126419
0.14740717
-0.016738451
0.14912385
-0.016359253
0.15087293
-0.015989608
0.15265823
-0.015653649
0.15448129
-0.015313451
0.15635492
-0.015148996
0.1582689
-0.014709885
0.16028567
-0.015559327
-0.01373178
0.1500544
0.00077876545
0.14676554
-0.00024532122
0.14346829
-0.0015307321
0.14042061
-0.0030295613
0.13762582
-0.004615335
0.13507768
-0.0061891372
0.13277801
-0.00772453
0.1307269
-0.0092130163
0.12892192
-0.010642167
0.12735786
-0.012000308
0.12602689
-0.013279946
0.12491963
-0.014476481
0.12402588
-0.01558679
0.12333499
-0.016608857
0.12283598
-0.017541694
0.12251773
-0.018385183
0.12236919
-0.019139928
0.12237943
-0.019807169
0.1225378
-0.020388711
0.12283398
-0.020886874
0.12325806
-0.021304433
0.1238006
-0.021644568
0.12445267
-0.021910806
0.12520591
-0.022106975
0.12605251
-0.022237146
0.12698529
-0.022305581
0.12799767
-0.02231668
0.12908369
-0.022274926
0.130238
-0.022184842
0.13145586
-0.022050936
0.13273313
-0.021877674
0.13406623
-0.021669433
0.13545215
-0.021430486
0.13688842
-0.021164976
0.13837307
-0.020876913
0.13990463
-0.020570176
0.14148211
-0.02024853
0.14310497
-0.019915654
0.14477313
-0.019575218
0.14648695
-0.019230894
0.14824728
-0.018886754
0.15005542
-0.018546591
0.15191337
-0.018217195
0.15382335
-0.01789959
0.15578957
-0.017619872
0.15781428
-0.017338156
0.15990916
-0.017243878
0.16206842
-0.01686914
0.16433732
-0.017828234
-0.016051855
0.18891225
0.0053807205
-0.19351421
0.18510236
0.0035645748
0.18171047
0.0018611569
0.17856549
0.00011541182
0.17563009
-0.0016799352
0.17287923
-0.0034382785
0.17029469
-0.0051399889
0.16786748
-0.0067858006
0.16559371
-0.0083683968
0.16347123
-0.0098778286
0.16149818
-0.011306898
0.15967245
-0.012650754
0.15799141
-0.013905744
0.15645175
-0.015069202
0.15504957
-0.01613951
0.15378038
-0.017116002
0.15263928
-0.017998826
0.15162097
-0.018788852
0.15071986
-0.019487604
0.14993019
-0.020097203
0.14924606
-0.020620302
0.14866151
-0.021060027
0.14817062
-0.021419915
0.1477675
-0.021703856
0.14744639
-0.021916034
0.14720167
-0.022060862
0.14702792
-0.022142926
0.14691992
-0.022166924
0.14687269
-0.022137617
0.14688152
-0.022059769
0.14694196
-0.021938114
0.14704984
-0.021777307
0.14720126
-0.021581903
0.14739261
-0.021356333
0.14762059
-0.021104892
0.14788216
-0.020831747
0.14817458
-0.020540949
0.14849539
-0.020236466
0.14884244
-0.019922263
0.14921385
-0.01960231
0.14960811
-0.019281011
0.150024
-0.018962478
0.15046078
-0.018653979
0.15091797
-0.018356783
0.15139625
-0.018098145
0.15189548
-0.017837386
0.15242028
-0.017768686
0.15296623
-0.017415086
0.15355693
-0.018418931
-0.016650636
0.21686102
0.0087789067
-0.22025921
0.21338729
0.0070383105
0.21017463
0.0050738158
0.20706948
0.0032205653
0.20402305
0.0013664946
0.2010663
-0.00048153082
0.19821612
-0.0022898075
0.19547701
-0.0040466988
0.19285489
-0.0057462761
0.19035659
-0.0073795217
0.18798729
-0.0089376053
0.18575041
-0.010413875
0.18364794
-0.011803273
0.18168058
-0.013101841
0.1798478
-0.014306724
0.17814796
-0.015416167
0.17657854
-0.016429399
0.1751362
-0.017346517
0.17381701
-0.018168414
0.17261651
-0.018896704
0.17152986
-0.019533651
0.17055193
-0.020082095
0.1696774
-0.020545382
0.16890083
-0.020927293
0.16821678
-0.021231975
0.16761978
-0.02146387
0.1671045
-0.021627647
0.16666571
-0.021728134
0.16629836
-0.021770261
0.16599759
-0.021758996
0.16575877
-0.021699298
0.16557754
-0.021596073
0.16544977
-0.021454136
0.16537163
-0.021278193
0.16533956
-0.021072823
0.16535029
-0.020842477
0.16540084
-0.0205915
0.16548853
-0.020324156
0.16561098
-0.020044715
0.16576613
-0.01975746
0.16595225
-0.019467129
0.16616797
-0.019178198
0.16641232
-0.01889833
0.16668485
-0.018629307
0.16698544
-0.018398742
0.16731538
-0.018167327
0.167674
-0.018127305
0.16806953
-0.017810614
0.16848443
-0.018833827
-0.017130805
0.24376972
0.011502723
-0.24649353
0.24091942
0.0098886037
0.23806636
0.0079268786
0.23521955
0.0060673729
0.23234191
0.0042441344
0.22945427
0.0024061183
0.22658783
0.0005766308
0.2237619
-0.001220769
0.22099239
-0.0029767731
0.21829525
-0.0046823823
0.21568434
-0.006326689
0.21317065
-0.0079001815
0.21076279
-0.0093954155
0.20846733
-0.010806379
0.20628889
-0.012128291
0.20423037
-0.013357647
0.20229312
-0.014492148
0.20047718
-0.015530577
0.19878147
-0.016472703
0.19720396
-0.017319193
0.19574184
-0.018071527
0.19439165
-0.018731913
0.19314947
-0.019303195
0.19201095
-0.019788777
0.19097151
-0.020192536
0.19002638
-0.020518739
0.1891707
-0.020771965
0.18839959
-0.020957027
0.18770823
-0.021078902
0.1870919
-0.021142661
0.18654601
-0.02115341
0.18606618
-0.021116239
0.18564822
-0.021036181
0.18528821
-0.02091818
0.18498246
-0.020767071
0.18472756
-0.020587581
0.1845204
-0.020384339
0.18435815
-0.020161906
0.18423829
-0.019924857
0.18415863
-0.019677801
0.18411732
-0.01942581
0.18411288
-0.01917376
0.18414417
-0.018929622
0.18421082
-0.018695957
0.18431197
-0.018499895
0.1844504
-0.01830575
0.18461977
-0.018296682
0.184842
-0.018032845
0.18505347
-0.019045299
-0.017469875
0.26927718
0.013535558
-0.27131001
0.26710926
0.012056522
0.26476763
0.010268509
0.26232854
0.0085064605
0.25979994
0.0067727373
0.257192
0.0050140568
0.25453085
0.0032377826
0.25184066
0.0014694231
0.24914142
-0.00027753899
0.24645295
-0.0019939123
0.24379454
-0.0036682738
0.24118331
-0.0052889575
0.23863401
-0.0068461107
0.23615911
-0.0083314838
0.23376893
-0.0097381025
0.23147161
-0.011060327
0.22927334
-0.012293881
0.22717852
-0.013435762
0.22518996
-0.014484141
0.22330905
-0.015438282
0.22153597
-0.016298444
0.21986984
-0.017065792
0.21830895
-0.017742297
0.21685081
-0.018330643
0.2154924
-0.018834128
0.21423024
-0.01925657
0.21306049
-0.01960222
0.21197913
-0.019875662
0.21098197
-0.020081742
0.21006478
-0.020225477
0.20922337
-0.020311994
0.20845359
-0.020346462
0.20775145
-0.020334043
0.20711313
-0.020279855
0.20653499
-0.02018894
0.20601367
-0.020066261
0.20554604
-0.019916706
0.20512925
-0.019745118
0.20476077
-0.019556369
0.20443836
-0.019355397
0.20416014
-0.019147594
0.20392465
-0.018938266
0.20373065
-0.018735617
0.20357787
-0.018543184
0.2034649
-0.018386922
0.2033957
-0.018236553
0.20335914
-0.018260124
0.20338854
-0.018062236
0.20337876
-0.019035521
-0.017645593
0.29298762
0.014866609
-0.29431867
0.29150848
0.013535668
0.28978609
0.011990897
0.28788757
0.010404983
0.28584778
0.0088125277
0.28367753
0.007184299
0.28139525
0.0055200647
0.27902417
0.0038405015
0.2765856
0.0021610324
0.2740997
0.00049199018
0.27158667
-0.001155242
0.26906623
-0.0027685222
0.26655672
-0.0043365965
0.26407472
-0.0058494837
0.26163497
-0.007298357
0.25925025
-0.0086756023
0.25693131
-0.0099749393
0.25468697
-0.011191423
0.25252421
-0.012321389
0.25044833
-0.013362393
0.24846303
-0.014313142
0.24657064
-0.015173409
0.24477228
-0.015943939
0.24306799
-0.016626352
0.24145691
-0.017223043
0.23993741
-0.017737076
0.23850728
-0.01817209
0.23716381
-0.01853219
0.23590393
-0.01882186
0.23472432
-0.019045866
0.23362151
-0.019209181
0.23259195
-0.019316906
0.23163211
-0.019374208
0.23073853
-0.019386276
0.22990787
-0.019358278
0.22913696
-0.019295348
0.22842284
-0.019202588
0.22776281
-0.019085085
0.22715443
-0.018947987
0.22659557
-0.018796541
0.22608443
-0.018636451
0.22561962
-0.018473458
0.22519994
-0.018315937
0.22482528
-0.018168521
0.22449384
-0.018055484
0.22421045
-0.017953161
0.22396028
-0.018009962
0.22378505
-0.017887004
0.22354581