/*--------------------------------*- C++ -*----------------------------------*\
  =========                 |
  \\      /  F ield         | OpenFOAM: The Open Source CFD Toolbox
   \\    /   O peration     | Website:  https://openfoam.org
    \\  /    A nd           | Version:  6
     \\/     M anipulation  |
\*---------------------------------------------------------------------------*/
FoamFile
{
    version     2.0;
    format      ascii;
    class       surfaceScalarField;
    location    "120";
    object      phi_0;
}
// * * * * * * * * * * * * * * * * * * * * * * * * * * * * * * * * * * * * * //

dimensions      [0 3 -1 0 0 0 0];

internalField   nonuniform List<scalar> 
18180
(
0.00031873652
-0.00016317447
-0.00015556205
0.0013092401
-0.0013669751
0.00037647157
0.0030329538
-0.0033337401
0.0016100263
0.0055498933
-0.0059761556
0.0034592162
0.0089183871
-0.0092393673
0.0058708734
0.01319309
-0.013079923
0.0088052195
0.018422325
-0.017460353
0.012231119
0.024645109
-0.022346444
0.016123659
0.031888011
-0.027704103
0.020461201
0.04016207
-0.033496745
0.025222686
0.049460113
-0.039683535
0.030385492
0.059754828
-0.046218468
0.035923753
0.070997996
-0.05305027
0.041807102
0.08312135
-0.060123165
0.047999811
0.096039657
-0.067378572
0.054460265
0.10965655
-0.074757876
0.061140981
0.12387256
-0.0822061
0.06799009
0.13860033
-0.089676202
0.074948435
0.15383842
-0.09715105
0.081912958
-0.10462827
0.088681252
0.16978544
0.00039750534
-0.00056067981
0.0016096274
-0.0025790972
0.0036893917
-0.0054135044
0.0066875752
-0.0089743391
0.010650859
-0.013202651
0.015618168
-0.018047232
0.021616663
-0.023458849
0.028657781
-0.029387562
0.036733597
-0.035779919
0.045813931
-0.042577079
0.05584461
-0.049714214
0.066747252
-0.05712111
0.078420823
-0.064723841
0.090745032
-0.072447374
0.10358538
-0.080218922
0.11679926
-0.087971755
0.13024212
-0.095648963
0.14377428
-0.10320835
0.15725978
-0.11063656
-0.11786407
0.17049558
0.00048063265
-0.0010413125
0.0019187341
-0.0040171987
0.0043525586
-0.007847329
0.0078167041
-0.012438485
0.012337882
-0.017723829
0.017929516
-0.023638865
0.024586661
-0.030115994
0.032281732
-0.037082633
0.040961476
-0.044459663
0.050545668
-0.052161271
0.060927915
-0.060096461
0.071978738
-0.068171933
0.083550791
-0.076295894
0.095485837
-0.08438242
0.10762271
-0.092355799
0.11980525
-0.10015429
0.13188892
-0.10773263
0.14374429
-0.11506372
0.15524936
-0.12214164
-0.12891629
0.16630158
0.00056617974
-0.0016074922
0.0022279808
-0.0056789998
0.0050006954
-0.010620044
0.0088941567
-0.016331946
0.01390548
-0.022735152
0.020012191
-0.029745576
0.027166891
-0.037270694
0.035293915
-0.045209658
0.044288447
-0.053454195
0.054018447
-0.061891271
0.064329453
-0.070407467
0.075051903
-0.078894383
0.086010306
-0.087254298
0.097033258
-0.095405371
0.10796317
-0.10328571
0.11866457
-0.11085569
0.12903014
-0.1180982
0.13898331
-0.12501689
0.14847509
-0.13163341
-0.13794701
0.15750581
0.00065089696
-0.0022583892
0.0025243818
-0.0075524846
0.0056037208
-0.013699383
0.009864612
-0.020592837
0.01526483
-0.02813537
0.021736708
-0.036217454
0.02918286
-0.044716846
0.037475348
-0.053502146
0.04645852
-0.062437367
0.055955402
-0.071388152
0.065777019
-0.080229084
0.075733594
-0.088850958
0.085646264
-0.097166967
0.095357875
-0.10511698
0.10474159
-0.11266943
0.11370645
-0.11982055
0.12219948
-0.12659123
0.13020452
-0.13302193
0.13773778
-0.13916667
-0.1450692
0.14485997
0.00073064692
-0.0029890361
0.0027921269
-0.0096139645
0.00612666
-0.017033916
0.010666855
-0.025133032
0.016322858
-0.033791373
0.022975518
-0.042870114
0.030474766
-0.052216094
0.038642786
-0.061670167
0.04728161
-0.071076191
0.056184168
-0.08029071
0.065147306
-0.089192223
0.073984977
-0.097688629
0.082539791
-0.10572178
0.090691511
-0.1132687
0.098361545
-0.12033946
0.10551325
-0.12697226
0.11214859
-0.13322657
0.11830204
-0.13917538
0.1240331
-0.14489772
-0.15046475
0.12942865
0.00080074232
-0.0037897784
0.0030139558
-0.011827178
0.0065329762
-0.020552936
0.011240185
-0.029840241
0.016992884
-0.039544073
0.023618784
-0.049496013
0.030918496
-0.059515806
0.038673626
-0.069425296
0.046659086
-0.079061652
0.054657693
-0.088289316
0.06247471
-0.09700924
0.069950137
-0.10516406
0.076967052
-0.1127387
0.083455076
-0.11975673
0.089388958
-0.12627334
0.094783023
-0.13236633
0.099682869
-0.13812642
0.10415591
-0.14364842
0.10828237
-0.14902418
-0.15433487
0.11215249
0.00085606949
-0.004645848
0.0031720981
-0.014143207
0.0067873008
-0.024168139
0.01152992
-0.03458286
0.017203594
-0.045217746
0.023586743
-0.055879162
0.030440091
-0.066369154
0.037519547
-0.076504753
0.044591999
-0.086134103
0.051451161
-0.095148478
0.057930723
-0.1034888
0.06391278
-0.11114611
0.069330543
-0.11815646
0.074165474
-0.12459166
0.078439909
-0.13054778
0.082206859
-0.13613328
0.085538891
-0.14145845
0.088517817
-0.14662735
0.091226482
-0.15173285
-0.15685323
0.093744835
0.00089027238
-0.0055361204
0.0032483169
-0.016501251
0.0068576874
-0.027777509
0.011492563
-0.039217735
0.016906937
-0.05063212
0.02283904
-0.061811266
0.029023816
-0.07255393
0.035209379
-0.082690315
0.041174017
-0.092098741
0.046740424
-0.10071488
0.051784603
-0.10853298
0.056238258
-0.11559977
0.060084881
-0.12200308
0.063350874
-0.12785765
0.066093722
-0.13329063
0.068389443
-0.138429
0.070321191
-0.1433902
0.071970385
-0.14827654
0.073410958
-0.15317342
-0.15814876
0.074706494
0.00089982711
-0.0064359475
0.0032334092
-0.018834833
0.0067292173
-0.031273317
0.011111253
-0.04359977
0.016092576
-0.055613444
0.021384715
-0.067103405
0.026713961
-0.077883176
0.031839157
-0.087815511
0.036567071
-0.096826656
0.040762184
-0.10491
0.044349298
-0.1121201
0.047309075
-0.11855954
0.049668025
-0.12436203
0.051485325
-0.12967495
0.052838926
-0.13464423
0.053813112
-0.13940318
0.054488896
-0.14406598
0.054937899
-0.14872554
0.055219522
-0.15345504
0.055379851
-0.15830909
-0.00020238266
0.00020238264
5.2484034e-12
-0.00067776046
0.00047537782
-9.8918886e-12
-0.0013424524
0.000664692
-1.5488048e-11
-0.0021323349
0.00078988256
-1.4440445e-11
-0.0029958283
0.00086349338
-1.4497043e-11
-0.0038908091
0.00089498084
-1.2766348e-11
-0.0047823765
0.00089156741
-1.196606e-11
-0.005640983
0.00085860652
-7.9502968e-12
-0.0064409641
0.000799981
-4.04387e-12
-0.0071593868
0.00071842271
2.7730028e-12
-0.0077751319
0.00061574511
9.5347318e-12
-0.0082681583
0.00049302634
1.8140399e-11
-0.0086189232
0.00035076485
2.6541834e-11
-0.0088079489
0.00018902572
3.6007598e-11
-0.0088155678
7.6187592e-06
4.5228591e-11
-0.0086219455
-0.00019362237
5.5159445e-11
-0.0082073453
-0.00041460029
6.4910723e-11
-0.0075517225
-0.00065562288
7.519689e-11
-0.0066343188
-0.00091740376
8.5261405e-11
-0.001186339
-0.0054479799
9.5571723e-11
-0.00018797835
0.00039036098
-0.00062501925
0.00091241872
-0.0012287762
0.001268449
-0.001935229
0.0014963354
-0.0026921848
0.0016204492
-0.0034563391
0.0016591351
-0.004191129
0.0016263573
-0.0048649239
0.0015324014
-0.0054495876
0.0013846447
-0.0059193433
0.0011881784
-0.0062498582
0.00094625993
-0.0064175012
0.00066066935
-0.0063987387
0.00033200236
-0.0061696551
-4.0057887e-05
-0.0057056279
-0.00045640854
-0.004981247
-0.0009180032
-0.0039705315
-0.0014253158
-0.0026468495
-0.0019793049
-0.00098276863
-0.0025814846
-0.0032020385
0.0010329309
-0.00015893074
0.0005492917
-0.00051890016
0.0012723881
-0.0010007856
0.0017503344
-0.0015412813
0.0020368312
-0.0020873762
0.0021665442
-0.0025937629
0.0021655218
-0.0030208929
0.0020534873
-0.0033333096
0.0018448181
-0.0034983026
0.0015496377
-0.0034848315
0.0011747073
-0.003262642
0.00072407046
-0.0028015463
0.0001995736
-0.0020707889
-0.00039875502
-0.0010385332
-0.0010723136
0.00032856823
-0.00182351
0.0020656501
-0.0026550851
0.0042095941
-0.0035692599
0.0067987229
-0.0045684337
0.009872731
-0.0056554927
-0.0067802093
0.013450902
-0.00011756849
0.00066686017
-0.0003670025
0.0015218221
-0.0006735192
0.0020568511
-0.00097483044
0.0023381424
-0.0012168542
0.002408568
-0.0013515846
0.0023002522
-0.001335434
0.0020373366
-0.0011277782
0.0016371624
-0.00068976072
0.0011116201
1.666048e-05
0.0004682861
0.0010294964
-0.00028876551
0.0023873744
-0.0011583044
0.0041300831
-0.0021414637
0.006299054
-0.0032412845
0.0089378678
-0.0044623238
0.012092811
-0.0058100282
0.01581325
-0.0072896991
0.020151332
-0.0089065155
0.02516177
-0.010665931
-0.012493377
0.030874938
-6.6907679e-05
0.00073376783
-0.00017916511
0.0016340796
-0.00026652799
0.002144214
-0.00026767672
0.0023392912
-0.00012716458
0.0022680559
0.00020621907
0.0019668685
0.00078077743
0.0014627783
0.0016430756
0.00077486418
0.0028389105
-8.4214752e-05
0.0044140964
-0.0011068998
0.0064150289
-0.002289698
0.0088891007
-0.0036323763
0.011885028
-0.0051373907
0.015453178
-0.0068094351
0.019645948
-0.008655093
0.024518377
-0.010682457
0.030129032
-0.012900354
0.036540514
-0.015317997
0.043820222
-0.017945639
-0.020683644
0.052010489
-9.9831673e-06
0.00074375098
3.4541848e-05
0.0015895545
0.00019990776
0.0019788481
0.00054680082
0.0019923981
0.001132308
0.0016825487
0.0020110778
0.0010880987
0.0032362842
0.00023757191
0.0048605095
-0.00084936119
0.0069364024
-0.0021601077
0.0095170518
-0.0036875492
0.012656195
-0.0054288415
0.016408324
-0.007384505
0.020828609
-0.0095576756
0.025972739
-0.011953566
0.031896825
-0.014579179
0.038657697
-0.017443329
0.046314087
-0.020556745
0.054928696
-0.023932606
0.06457202
-0.027588963
-0.031407069
0.075295445
5.0754151e-05
0.00069299682
0.00026566979
0.0013746389
0.00070828316
0.0015362347
0.0014390849
0.0012615964
0.0025169112
0.00060472237
0.0039997058
-0.00039469587
0.0059451163
-0.0017078387
0.0084108833
-0.0033151282
0.01145497
-0.0052041947
0.015135533
-0.007368112
0.019510651
-0.0098039594
0.0246378
-0.012511654
0.030573116
-0.015492992
0.0373705
-0.018750949
0.045080679
-0.022289358
0.053750665
-0.026113315
0.063424568
-0.030230647
0.074146983
-0.034655022
0.085971942
-0.039413922
-0.044390325
0.098955198
0.00011380038
0.00057919644
0.00050852015
0.00097991911
0.0012460215
0.00079873338
0.0023868502
0.00012076765
0.0039913595
-0.00099978695
0.0061200548
-0.0025233912
0.0088335747
-0.0044213585
0.012192514
-0.0066740673
0.016257018
-0.0092686989
0.021086039
-0.012197133
0.026736295
-0.015454216
0.033260946
-0.019036305
0.040708006
-0.022940052
0.049118533
-0.027161476
0.058524735
-0.03169556
0.068948344
-0.036536924
0.080400434
-0.041682738
0.092884542
-0.047139129
0.10640816
-0.052937542
-0.058997771
0.12101561
0.00017850098
0.00040069546
0.00076005086
0.00039836922
0.0018053874
-0.00024660316
0.0033748026
-0.0014486476
0.0055291391
-0.0031541235
0.0083295335
-0.0053237856
0.011836792
-0.0079286166
0.016110466
-0.010947741
0.021207574
-0.014365808
0.027180979
-0.018170537
0.034077457
-0.022350693
0.041935498
-0.026894347
0.050782879
-0.031787433
0.060634023
-0.037012621
0.07148715
-0.042548687
0.083321268
-0.048371042
0.096093965
-0.054455435
0.10974275
-0.060787913
0.12419853
-0.067393321
-0.074276897
0.13947765
0.00024513341
0.0010199742
0.0023833973
0.0043939658
0.0071107156
0.010592149
0.014894652
0.020070569
0.026165963
0.033218111
0.04125291
0.050282317
0.060301986
0.071289176
0.083200754
0.095970693
0.10950535
0.12366587
0.13818551
0.15258986
-0.003507224
-0.001940756
1.4373991e-10
-0.0012852899
-0.0022219343
1.5944495e-10
0.0011954885
-0.0024807786
1.7072676e-10
0.003878211
-0.0026827227
1.7603324e-10
0.0067360744
-0.0028578636
1.7568095e-10
0.0097517736
-0.0030156994
1.6731075e-10
0.012906375
-0.0031546013
1.5176872e-10
0.016181856
-0.0032754811
1.2685421e-10
0.019562516
-0.0033806602
9.1487429e-11
0.023034137
-0.0034716212
4.4271481e-11
0.026583434
-0.0035492965
-1.6735692e-11
0.030197981
-0.0036145478
-9.186932e-11
0.033866138
-0.0036681568
-1.8151666e-10
0.037576909
-0.0037107705
-2.8390283e-10
0.041319843
-0.0037429338
-3.9707952e-10
0.04508497
-0.0037651263
-5.1652964e-10
0.04886275
-0.0037777795
-6.374371e-10
0.052644041
-0.0037812902
-7.5205544e-10
0.056420077
-0.003776035
-8.5226277e-10
0.06018246
-0.0037623821
-9.2698834e-10
0.063923161
-0.0037406996
-9.6547526e-10
0.067634524
-0.003711362
-9.5477971e-10
0.071309279
-0.0036747542
-8.8408186e-10
0.074940553
-0.0036312734
-7.421217e-10
0.078521883
-0.0035813294
-5.2310695e-10
0.082047227
-0.0035253438
-2.236262e-10
0.085510974
-0.0034637472
1.4955592e-10
0.08890795
-0.0033969765
5.8441918e-10
0.09223342
-0.0033254716
1.054014e-09
0.09548309
-0.0032496714
1.5257046e-09
0.098653099
-0.0031700109
1.9501461e-09
0.10174001
-0.0030869171
2.2784081e-09
0.10474082
-0.003000807
2.4493452e-09
0.1076529
-0.002912085
2.4180267e-09
0.11047404
-0.0028211422
2.1391473e-09
0.11320239
-0.0027283557
1.6081061e-09
0.11583648
-0.0026340901
8.3291218e-10
0.11837518
-0.0025386998
-1.148877e-10
0.12081772
-0.0024425366
-1.151232e-09
0.12316367
-0.0023459501
-2.1260369e-09
0.12541301
-0.0022493301
-2.9012327e-09
0.12756604
-0.0021530318
-3.3152712e-09
0.1296238
-0.0020577516
-3.2624099e-09
0.13158728
-0.001963481
-2.6656198e-09
0.13346064
-0.0018733604
-1.5571952e-09
0.13524244
-0.0017817921
-7.2658171e-11
0.13695725
-0.0017148129
1.6209328e-09
0.1385609
-0.0016036597
3.1270246e-09
0.14025464
-0.0016937426
4.4346473e-09
-0.0013391627
3.9275556e-09
0.002853679
-0.0037615042
0.0049509753
-0.0043192306
0.0072940027
-0.004823806
0.0098203182
-0.0052090382
0.012508861
-0.0055464062
0.015347306
-0.0058541449
0.018318914
-0.0061262093
0.021407279
-0.0063638459
0.024598383
-0.0065717635
0.027879463
-0.0067527013
0.031238388
-0.0069082223
0.03466368
-0.007039839
0.03814448
-0.0071489574
0.041670445
-0.0072367351
0.045231657
-0.0073041457
0.048818584
-0.0073520534
0.052422048
-0.007381244
0.056033207
-0.0073924487
0.059643542
-0.0073863698
0.063244861
-0.0073637016
0.066829307
-0.0073251462
0.070389369
-0.007271424
0.073917896
-0.0072032807
0.077408113
-0.00712149
0.080853637
-0.0070268536
0.084248491
-0.0069201981
0.087587114
-0.0068023699
0.090864367
-0.0066742299
0.094075541
-0.0065366452
0.097216352
-0.0063904826
0.10028294
-0.0062366013
0.10327187
-0.0060758459
0.10618011
-0.0059090414
0.10900501
-0.0057369891
0.11174433
-0.0055604635
0.11439619
-0.005380213
0.11695906
-0.0051969616
0.11943177
-0.0050114137
0.12181351
-0.0048242694
0.12410378
-0.0046362241
0.12630251
-0.0044480566
0.12840995
-0.0042604754
0.13042707
-0.0040748707
0.13235482
-0.0038912294
0.13419726
-0.0037157998
0.13595295
-0.003537486
0.13764602
-0.0034078856
0.13923334
-0.0031909778
0.14091095
-0.0033713453
-0.002675864
0.015022379
-0.0053329815
0.016853634
-0.0061504859
0.018907343
-0.0068775144
0.021113576
-0.0074152709
0.023460699
-0.0078935294
0.025945061
-0.0083385067
0.028554044
-0.0087351924
0.031274169
-0.0090839709
0.034094336
-0.0093919306
0.037004316
-0.0096626814
0.039993989
-0.0098978957
0.043053496
-0.010099346
0.046173313
-0.010268774
0.049344186
-0.010407608
0.052557086
-0.010517046
0.055803203
-0.010598171
0.05907395
-0.01065199
0.062360964
-0.010679463
0.065656125
-0.010681531
0.068951571
-0.010659147
0.072239715
-0.01061329
0.075513273
-0.010544982
0.078765282
-0.01045529
0.081989125
-0.010345332
0.085178546
-0.010216275
0.088327672
-0.010069324
0.091431023
-0.0099057208
0.094483522
-0.0097267289
0.097480501
-0.0095336236
0.1004177
-0.0093276833
0.10329127
-0.0091101742
0.10609777
-0.0088823443
0.10883414
-0.008645413
0.11149772
-0.0084005659
0.11408621
-0.0081489506
0.11659767
-0.0078916767
0.11903053
-0.0076298196
0.12138354
-0.0073644272
0.12365582
-0.0070965422
0.1258468
-0.0068272032
0.12795631
-0.0065575742
0.12998455
-0.0062887168
0.13193239
-0.0060227085
0.13380071
-0.0057595475
0.13559342
-0.0055085069
0.13730917
-0.005253238
0.13897113
-0.0050698415
0.14053848
-0.0047583354
0.14219667
-0.0050295341
-0.0040208075
0.032058377
-0.0065164207
0.033473734
-0.0075658422
0.03507941
-0.0084831906
0.03680243
-0.0091382907
0.038643479
-0.0097345792
0.040608857
-0.010303885
0.042691393
-0.010817728
0.044881565
-0.011274142
0.047171796
-0.011682162
0.04955486
-0.012045746
0.052023051
-0.012366086
0.054568413
-0.012644708
0.057182936
-0.012883297
0.059858578
-0.013083251
0.06258728
-0.013245747
0.065360997
-0.013371888
0.068171751
-0.013462744
0.071011665
-0.013519377
0.073873009
-0.013542875
0.076748233
-0.013534371
0.079630006
-0.013495063
0.082511251
-0.013426227
0.085385176
-0.013329215
0.088245303
-0.013205459
0.091085491
-0.013056463
0.093899956
-0.012883789
0.096683289
-0.012689054
0.099430465
-0.012473905
0.10213685
-0.012240011
0.10479821
-0.011989045
0.1074107
-0.011722664
0.10997087
-0.011442509
0.11247563
-0.011150178
0.1149223
-0.010847231
0.11730853
-0.010535178
0.11963233
-0.010215481
0.12189207
-0.0098895597
0.12408644
-0.0095587992
0.12621448
-0.0092245802
0.12827556
-0.008888282
0.13026944
-0.0085514513
0.13219622
-0.0082155039
0.13405671
-0.0078831963
0.13585173
-0.0075545625
0.137585
-0.0072417773
0.13925536
-0.0069236063
0.14088461
-0.006699091
0.14243542
-0.006309138
0.14407794
-0.006672053
-0.0053898951
0.052650932
-0.0071568632
0.053491675
-0.0084065861
0.054485957
-0.0094774722
0.05556809
-0.010220424
0.056752893
-0.010919382
0.05805466
-0.011605652
0.059471903
-0.012234971
0.060999755
-0.012801995
0.062634007
-0.013316414
0.064370062
-0.013781801
0.0662024
-0.014198424
0.068124753
-0.01456706
0.070130356
-0.014888901
0.072212111
-0.015165005
0.07436267
-0.015396307
0.076574523
-0.015583741
0.078840078
-0.015728299
0.081151744
-0.015831043
0.083501993
-0.015893124
0.085883425
-0.015915803
0.088288816
-0.015900454
0.090711166
-0.015848578
0.09314374
-0.015761789
0.095580098
-0.015641818
0.098014131
-0.015490495
0.10044007
-0.015309732
0.10285253
-0.015101513
0.10524649
-0.014867861
0.10761731
-0.014610834
0.10996076
-0.014332491
0.11227298
-0.014034882
0.11455049
-0.013720025
0.11679022
-0.013389901
0.11898942
-0.013046434
0.12114573
-0.012691494
0.12325715
-0.012326893
0.12532198
-0.011954389
0.12733888
-0.011575705
0.12930686
-0.011192558
0.13122525
-0.010806669
0.13309376
-0.010419968
0.13491249
-0.010034228
0.13668217
-0.0096528772
0.13840362
-0.0092760165
0.14008041
-0.008918568
0.14171168
-0.0085548755
0.14331754
-0.0083049476
0.14486508
-0.0078566821
0.14650558
-0.0083125467
-0.0068063746
0.07522457
-0.007085988
0.075329678
-0.0085116941
0.0755542
-0.0097019945
0.075854655
-0.010520879
0.076259079
-0.011323806
0.076784326
-0.012130898
0.077433431
-0.012884077
0.078206327
-0.013574891
0.079101323
-0.014211409
0.08011527
-0.014795748
0.081243928
-0.015327082
0.082482
-0.015805133
0.083823304
-0.016230205
0.085261061
-0.016602763
0.086788096
-0.016923342
0.088396958
-0.017192603
0.090080029
-0.01741137
0.091829634
-0.017580647
0.09363813
-0.01770162
0.095497981
-0.017775654
0.097401824
-0.017804297
0.09934252
-0.017789273
0.1013132
-0.017732471
0.10330731
-0.017635927
0.10531863
-0.017501812
0.1073413
-0.017332402
0.10936984
-0.017130059
0.11139918
-0.0168972
0.11342463
-0.016636279
0.11544189
-0.016349757
0.11744709
-0.01604008
0.11943673
-0.015709662
0.12140769
-0.015360865
0.12335725
-0.014995989
0.12528302
-0.01461727
0.127183
-0.014226872
0.12905552
-0.013826904
0.13089924
-0.013419426
0.13271318
-0.013006501
0.13449671
-0.012590197
0.13624957
-0.012172832
0.13797189
-0.011756547
0.13966444
-0.011345431
0.14132812
-0.010939694
0.14296638
-0.010556827
0.14457879
-0.01016728
0.1461836
-0.0099097627
0.14775308
-0.0094261638
0.14941715
-0.0099766102
-0.0083023658
0.098028328
-0.0061591182
0.097261188
-0.0077445539
0.096585037
-0.0090258437
0.09600075
-0.0099365912
0.095544456
-0.010867512
0.095227388
-0.011813831
0.095054915
-0.012711604
0.09503104
-0.013551016
0.095155297
-0.014335666
0.095424422
-0.015064873
0.095834055
-0.015736715
0.096378789
-0.016349866
0.097052138
-0.016903555
0.097846873
-0.017397497
0.09875531
-0.017831779
0.099769479
-0.018206772
0.10088125
-0.018523137
0.10208243
-0.01878183
0.1033649
-0.018984092
0.10472067
-0.019131428
0.10614197
-0.019225591
0.10762126
-0.019268569
0.10915136
-0.019262563
0.11072539
-0.019209959
0.11233688
-0.019113304
0.11397976
-0.018975279
0.11564836
-0.018798658
0.11733745
-0.01858629
0.11904223
-0.018341059
0.12075832
-0.018065853
0.12248179
-0.017763548
0.1242091
-0.017436972
0.12593713
-0.017088898
0.12766317
-0.016722022
0.12938486
-0.016338964
0.13110025
-0.015942261
0.13280773
-0.015534384
0.13450606
-0.015117751
0.13619434
-0.014694785
0.13787205
-0.014267909
0.13953907
-0.013839848
0.14119564
-0.013413122
0.14284269
-0.012992479
0.14448127
-0.012578277
0.14611484
-0.012190398
0.14774351
-0.01179595
0.14938366
-0.011549904
0.15101316
-0.011055664
0.15273939
-0.01170284
-0.009919632
0.11919207
-0.0043355787
0.11749958
-0.0060520647
0.11586018
-0.0073864493
0.11435779
-0.0084341961
0.11302863
-0.0095383554
0.11187023
-0.010655423
0.11088803
-0.011729413
0.11008834
-0.012751323
0.10947056
-0.013717885
0.1090301
-0.014624408
0.10876114
-0.015467757
0.10865703
-0.016245754
0.10871017
-0.016956695
0.10891225
-0.01759958
0.10925455
-0.01817408
0.10972813
-0.018680352
0.11032396
-0.01911897
0.11103304
-0.019490911
0.11184649
-0.019797539
0.11275563
-0.020040562
0.11375204
-0.020222009
0.11482767
-0.020344193
0.11597479
-0.020409689
0.11718613
-0.020421293
0.11845481
-0.020381991
0.11977445
-0.020294919
0.12113912
-0.020163328
0.12254337
-0.019990542
0.12398224
-0.019779926
0.12545124
-0.019534848
0.12694634
-0.019258651
0.12846399
-0.018954625
0.13000108
-0.018625988
0.13155493
-0.018275868
0.13312327
-0.017907302
0.13470423
-0.017523229
0.13629636
-0.017126511
0.13789856
-0.016719951
0.13951013
-0.016306351
0.14113074
-0.01588852
0.14276049
-0.015469602
0.14439989
-0.015052518
0.14605009
-0.014642679
0.14771245
-0.014240635
0.14939053
-0.013868477
0.15108511
-0.01349053
0.15281072
-0.01327552
0.15455114
-0.012796083
0.15639106
-0.013542762
-0.011709517
0.13689876
-0.0017566889
0.13438089
-0.0035341956
0.13182243
-0.0048279857
0.12946548
-0.0060772461
0.12733725
-0.0074101257
0.12541912
-0.0087372887
0.12371391
-0.010024206
0.12222672
-0.011264131
0.12095599
-0.012447159
0.11989596
-0.013564378
0.11903912
-0.014610918
0.11837713
-0.015583759
0.11790098
-0.01648055
0.11760116
-0.017299759
0.1174678
-0.018040718
0.11749088
-0.018703438
0.1176604
-0.019288488
0.11796644
-0.019796944
0.11839925
-0.020230357
0.1189494
-0.020590712
0.11960776
-0.020880371
0.12036562
-0.021102047
0.12121468
-0.021258753
0.12214715
-0.021353762
0.12315573
-0.021390566
0.12423363
-0.021372826
0.12537463
-0.021304327
0.12657303
-0.021188938
0.12782367
-0.021030563
0.12912193
-0.02083311
0.13046372
-0.020600445
0.13184547
-0.020336373
0.13326409
-0.020044608
0.13471698
-0.019728756
0.13620199
-0.019392316
0.13771743
-0.019038671
0.13926204
-0.018671114
0.14083495
-0.018292861
0.14243573
-0.017907133
0.14406436
-0.017517153
0.14572127
-0.01712651
0.1474073
-0.016738552
0.14912399
-0.016359365
0.15087309
-0.015989733
0.1526584
-0.015653789
0.15448147
-0.015313607
0.15635513
-0.015149173
0.15826913
-0.014710083
0.16028592
-0.01555956
-0.013732049
0.15005441
0.00077876095
0.14676554
-0.00024532621
0.1434683
-0.0015307376
0.14042062
-0.0030295673
0.13762583
-0.0046153415
0.13507769
-0.0061891441
0.13277802
-0.0077245375
0.13072691
-0.0092130244
0.12892193
-0.010642176
0.12735787
-0.012000318
0.12602691
-0.013279956
0.12491964
-0.014476492
0.12402589
-0.015586801
0.123335
-0.01660887
0.12283599
-0.017541708
0.12251775
-0.018385197
0.12236921
-0.019139944
0.12237945
-0.019807185
0.12253782
-0.020388728
0.122834
-0.020886893
0.12325808
-0.021304453
0.12380062
-0.021644589
0.1244527
-0.021910828
0.12520594
-0.022106999
0.12605254
-0.022237172
0.12698532
-0.022305609
0.12799771
-0.02231671
0.12908373
-0.022274959
0.13023804
-0.022184876
0.13145591
-0.022050974
0.13273318
-0.021877714
0.13406628
-0.021669477
0.13545221
-0.021430534
0.13688848
-0.021165028
0.13837313
-0.02087697
0.1399047
-0.020570238
0.14148218
-0.020248598
0.14310505
-0.019915729
0.14477322
-0.019575301
0.14648705
-0.019230985
0.14824739
-0.018886854
0.15005555
-0.018546703
0.1519135
-0.018217319
0.1538235
-0.017899729
0.15578973
-0.017620028
0.15781446
-0.017338329
0.15990936
-0.017244076
0.16206864
-0.016869361
0.16433757
-0.017828494
-0.016052154
0.18891226
0.0053807155
-0.19351422
0.18510237
0.0035645693
0.18171048
0.0018611509
0.17856551
0.00011540533
0.17563011
-0.0016799422
0.17287925
-0.003438286
0.17029471
-0.0051399971
0.16786749
-0.0067858093
0.16559372
-0.0083684063
0.16347125
-0.0098778388
0.1614982
-0.011306909
0.15967247
-0.012650766
0.15799143
-0.013905756
0.15645177
-0.015069215
0.15504959
-0.016139524
0.15378041
-0.017116017
0.15263931
-0.017998842
0.15162099
-0.018788869
0.15071989
-0.019487622
0.14993022
-0.020097223
0.14924609
-0.020620323
0.14866155
-0.021060049
0.14817066
-0.021419939
0.14776754
-0.021703882
0.14744643
-0.021916062
0.14720171
-0.022060892
0.14702796
-0.022142958
0.14691996
-0.022166959
0.14687274
-0.022137654
0.14688158
-0.02205981
0.14694202
-0.021938158
0.1470499
-0.021777355
0.14720132
-0.021581955
0.14739268
-0.021356389
0.14762066
-0.021104953
0.14788224
-0.020831814
0.14817466
-0.020541022
0.14849548
-0.020236547
0.14884253
-0.019922352
0.14921395
-0.019602409
0.14960822
-0.01928112
0.15002411
-0.018962598
0.15046091
-0.018654113
0.15091811
-0.018356932
0.1513964
-0.018098313
0.15189564
-0.017837574
0.15242047
-0.0177689
0.15296643
-0.017415324
0.15355715
-0.018419212
-0.016650958
0.21686104
0.0087789012
-0.22025922
0.2133873
0.0070383044
0.21017464
0.0050738093
0.20706949
0.0032205583
0.20402306
0.001366487
0.20106631
-0.00048153902
0.19821613
-0.0022898163
0.19547703
-0.0040467083
0.19285491
-0.0057462863
0.19035661
-0.0073795326
0.18798731
-0.008937617
0.18575043
-0.010413887
0.18364796
-0.011803286
0.1816806
-0.013101855
0.17984782
-0.014306739
0.17814799
-0.015416184
0.17657856
-0.016429417
0.17513623
-0.017346536
0.17381704
-0.018168434
0.17261654
-0.018896725
0.17152989
-0.019533674
0.17055196
-0.020082119
0.16967743
-0.020545408
0.16890087
-0.020927321
0.16821681
-0.021232005
0.16761982
-0.021463902
0.16710455
-0.021627681
0.16666576
-0.021728172
0.16629841
-0.021770302
0.16599764
-0.02175904
0.16575882
-0.021699346
0.16557759
-0.021596124
0.16544983
-0.021454192
0.1653717
-0.021278254
0.16533963
-0.021072889
0.16535037
-0.020842549
0.16540092
-0.020591579
0.16548862
-0.020324243
0.16561108
-0.020044811
0.16576623
-0.019757566
0.16595236
-0.019467246
0.16616809
-0.019178328
0.16641245
-0.018898475
0.16668499
-0.018629468
0.1669856
-0.018398923
0.16731555
-0.018167529
0.16767419
-0.018127536
0.16806974
-0.01781087
0.16848465
-0.01883413
-0.01713115
0.24376973
0.011502717
-0.24649355
0.24091944
0.0098885971
0.23806637
0.0079268716
0.23521957
0.0060673653
0.23234193
0.0042441262
0.22945428
0.0024061095
0.22658784
0.00057662133
0.22376191
-0.0012207791
0.22099241
-0.002976784
0.21829527
-0.004682394
0.21568436
-0.0063267015
0.21317066
-0.0079001949
0.21076281
-0.0093954299
0.20846735
-0.010806394
0.20628892
-0.012128308
0.2042304
-0.013357665
0.20229315
-0.014492167
0.20047721
-0.015530597
0.1987815
-0.016472725
0.19720399
-0.017319216
0.19574187
-0.018071552
0.19439169
-0.018731939
0.1931495
-0.019303223
0.19201099
-0.019788807
0.19097155
-0.020192568
0.19002642
-0.020518773
0.18917074
-0.020772002
0.18839964
-0.020957067
0.18770828
-0.021078946
0.18709195
-0.021142708
0.18654606
-0.021153461
0.18606623
-0.021116294
0.18564828
-0.021036241
0.18528827
-0.020918245
0.18498253
-0.020767142
0.18472764
-0.020587659
0.18452048
-0.020384424
0.18435824
-0.020161999
0.18423839
-0.01992496
0.18415874
-0.019677915
0.18411743
-0.019425936
0.184113
-0.019173899
0.1841443
-0.018929777
0.18421096
-0.018696131
0.18431213
-0.01850009
0.18445057
-0.018305968
0.18461996
-0.018296929
0.18484221
-0.01803312
0.18505371
-0.019045625
-0.017470244
0.26927719
0.013535552
-0.27131002
0.26710927
0.012056515
0.26476764
0.010268501
0.26232855
0.0085064523
0.25979995
0.0067727285
0.25719201
0.0050140474
0.25453086
0.0032377725
0.25184067
0.0014694123
0.24914144
-0.00027755058
0.24645297
-0.0019939247
0.24379455
-0.0036682871
0.24118333
-0.0052889717
0.23863403
-0.0068461259
0.23615913
-0.0083315001
0.23376895
-0.0097381198
0.23147163
-0.011060346
0.22927336
-0.012293901
0.22717855
-0.013435783
0.22518999
-0.014484164
0.22330908
-0.015438306
0.22153599
-0.01629847
0.21986987
-0.017065819
0.21830898
-0.017742327
0.21685085
-0.018330675
0.21549244
-0.018834162
0.21423027
-0.019256607
0.21306053
-0.019602259
0.21197917
-0.019875705
0.21098201
-0.020081788
0.21006483
-0.020225527
0.20922342
-0.020312048
0.20845364
-0.020346521
0.20775151
-0.020334107
0.20711319
-0.020279924
0.20653506
-0.020189016
0.20601375
-0.020066344
0.20554612
-0.019916797
0.20512934
-0.019745218
0.20476086
-0.01955648
0.20443846
-0.019355518
0.20416025
-0.019147729
0.20392477
-0.018938416
0.20373078
-0.018735783
0.20357802
-0.01854337
0.20346506
-0.01838713
0.20339587
-0.018236785
0.20335933
-0.018260389
0.20338874
-0.01806253
0.20337899
-0.019035868
-0.017645986
0.29298763
0.014866602
-0.29431868
0.29150849
0.013535661
0.2897861
0.011990889
0.28788758
0.010404974
0.28584779
0.0088125186
0.28367754
0.0071842891
0.28139526
0.0055200541
0.27902419
0.0038404902
0.27658561
0.0021610202
0.27409971
0.00049197713
0.27158668
-0.0011552559
0.26906625
-0.0027685371
0.26655673
-0.0043366125
0.26407473
-0.0058495008
0.26163499
-0.0072983752
0.25925027
-0.0086756218
0.25693132
-0.0099749602
0.25468699
-0.011191446
0.25252424
-0.012321413
0.25044835
-0.013362419
0.24846305
-0.01431317
0.24657067
-0.015173438
0.24477231
-0.01594397
0.24306802
-0.016626386
0.24145694
-0.017223079
0.23993745
-0.017737115
0.23850732
-0.018172132
0.23716385
-0.018532235
0.23590397
-0.018821908
0.23472436
-0.019045919
0.23362155
-0.019209239
0.232592
-0.019316968
0.23163217
-0.019374276
0.23073859
-0.019386349
0.22990794
-0.019358358
0.22913703
-0.019295437
0.22842292
-0.019202685
0.22776289
-0.019085191
0.22715452
-0.018948104
0.22659567
-0.01879667
0.22608453
-0.018636595
0.22561974
-0.018473617
0.22520007
-0.018316114
0.22482542
-0.018168719
0.22449399
-0.018055705
0.22421061
-0.017953409
0.22396047
-0.018010243
0.22378526