/*--------------------------------*- C++ -*----------------------------------*\
  =========                 |
  \\      /  F ield         | OpenFOAM: The Open Source CFD Toolbox
   \\    /   O peration     | Website:  https://openfoam.org
    \\  /    A nd           | Version:  6
     \\/     M anipulation  |
\*---------------------------------------------------------------------------*/
FoamFile
{
    version     2.0;
    format      ascii;
    class       volScalarField;
    location    "120";
    object      pMean;
}
// * * * * * * * * * * * * * * * * * * * * * * * * * * * * * * * * * * * * * //

dimensions      [0 2 -2 0 0 0 0];

internalField   nonuniform List<scalar> 
9200
(
-0.40459252
-0.39224382
-0.38119731
-0.37144991
-0.36190528
-0.35256066
-0.3435019
-0.33469203
-0.32605776
-0.31752394
-0.30901674
-0.30046857
-0.29182516
-0.28305255
-0.27414702
-0.26515182
-0.25615129
-0.24723939
-0.23941163
-0.2368326
-0.42328273
-0.40848591
-0.39550618
-0.38422619
-0.37328
-0.36263512
-0.35236771
-0.34241116
-0.33266236
-0.32302294
-0.31340277
-0.30372555
-0.29393618
-0.2840061
-0.27393796
-0.26376855
-0.25353966
-0.2432616
-0.23360397
-0.22669152
-0.44226437
-0.42501663
-0.41016254
-0.39742507
-0.38513068
-0.37319949
-0.36168751
-0.35049283
-0.33948294
-0.32854257
-0.3175766
-0.30651501
-0.29531892
-0.28398258
-0.27253196
-0.26101937
-0.24949556
-0.23797863
-0.22686599
-0.2172703
-0.46106959
-0.44140709
-0.42475226
-0.41061885
-0.3969903
-0.38372424
-0.37085096
-0.35823556
-0.34572688
-0.33321057
-0.32060896
-0.30788265
-0.29503221
-0.28209448
-0.26913453
-0.25623471
-0.2434705
-0.2308855
-0.21874866
-0.20780954
-0.47903341
-0.45707573
-0.43874307
-0.42328879
-0.40832854
-0.39364891
-0.37925732
-0.36499973
-0.3507295
-0.33636197
-0.32186696
-0.30726297
-0.29261104
-0.27800345
-0.26354933
-0.24936031
-0.23553043
-0.22211756
-0.20931099
-0.19762923
-0.49529844
-0.47126996
-0.45143942
-0.43475044
-0.41844507
-0.40224204
-0.38614176
-0.3699997
-0.35370973
-0.33725348
-0.32067991
-0.30408768
-0.28760896
-0.27139055
-0.25557565
-0.24028956
-0.22562536
-0.21163349
-0.198439
-0.18638788
-0.50883103
-0.4830735
-0.46198521
-0.44415851
-0.42648327
-0.40862977
-0.39062257
-0.37236962
-0.35385019
-0.33515028
-0.31642361
-0.2978595
-0.27965728
-0.26200306
-0.24505237
-0.22892065
-0.21367721
-0.19934428
-0.18598554
-0.17380738
-0.51844517
-0.49143224
-0.46939904
-0.45055674
-0.43149753
-0.41188058
-0.39179999
-0.37126934
-0.3504007
-0.32941679
-0.30858996
-0.28819658
-0.26848596
-0.24965889
-0.2318571
-0.21516296
-0.19960373
-0.18516053
-0.17183709
-0.15972123
-0.52278244
-0.4950497
-0.47237095
-0.45258683
-0.43209515
-0.41060906
-0.38835317
-0.36550258
-0.34233851
-0.31923186
-0.29656329
-0.27467088
-0.25382194
-0.23420069
-0.21590971
-0.19898114
-0.18339099
-0.16907635
-0.15598537
-0.14410376
-0.52048754
-0.49249598
-0.46933722
-0.4485703
-0.42654978
-0.40312741
-0.37872192
-0.35371153
-0.3285551
-0.3037501
-0.27974494
-0.25689267
-0.23543612
-0.21551145
-0.19716364
-0.18036783
-0.16505068
-0.15111192
-0.13845154
-0.12696581
-0.28309608
-0.2873265
-0.28914341
-0.28928337
-0.28842183
-0.28671997
-0.28427881
-0.28119682
-0.27755038
-0.27339837
-0.26878933
-0.2637651
-0.25836292
-0.25261695
-0.24655953
-0.24022376
-0.2336449
-0.22684779
-0.21983495
-0.2126999
-0.28611281
-0.28989437
-0.29138758
-0.29130228
-0.29025486
-0.28839788
-0.28583015
-0.28264552
-0.27891622
-0.27469787
-0.27003627
-0.26497084
-0.25953667
-0.25376567
-0.24768734
-0.24133345
-0.23474663
-0.22795
-0.22083567
-0.21337653
-0.29198418
-0.29489298
-0.29575817
-0.29523259
-0.29382125
-0.291661
-0.28884619
-0.28546182
-0.28157205
-0.27722605
-0.27246412
-0.26732082
-0.26182693
-0.25601005
-0.24989441
-0.24350839
-0.23690556
-0.23010824
-0.22281284
-0.21474539
-0.30042515
-0.3020921
-0.30205232
-0.30087975
-0.29892708
-0.29631109
-0.29312077
-0.28942918
-0.28528932
-0.28074138
-0.27581775
-0.27054603
-0.2649507
-0.25905309
-0.25287011
-0.24642426
-0.23978006
-0.23296516
-0.22543106
-0.21651931
-0.3110774
-0.31120304
-0.31001763
-0.30800476
-0.30533735
-0.30211121
-0.29841047
-0.29429465
-0.28980368
-0.28496709
-0.27980773
-0.27434387
-0.2685916
-0.26256459
-0.25627119
-0.24972504
-0.24299733
-0.23612953
-0.22832297
-0.21839824
-0.32357009
-0.32192666
-0.31939481
-0.3163664
-0.31282005
-0.30883254
-0.30448537
-0.29982484
-0.2948771
-0.28965852
-0.2841799
-0.27844907
-0.2724724
-0.26625447
-0.25979415
-0.25309361
-0.24622304
-0.23924338
-0.23113968
-0.2201057
-0.33757395
-0.33399579
-0.3299557
-0.32575989
-0.32118725
-0.31629954
-0.31117963
-0.30586022
-0.30035118
-0.29465509
-0.28876997
-0.28269132
-0.27641411
-0.26993289
-0.26323737
-0.25631836
-0.24923869
-0.24208173
-0.2336816
-0.22155381
-0.35283265
-0.34720068
-0.34152778
-0.33604363
-0.33032676
-0.32442734
-0.31843
-0.31235358
-0.30619186
-0.29993178
-0.29355593
-0.28704473
-0.280379
-0.27354103
-0.26651116
-0.25927223
-0.25188525
-0.24447966
-0.23585609
-0.2228613
-0.36916104
-0.36137867
-0.35397178
-0.34710329
-0.34014702
-0.33314077
-0.32617314
-0.31924888
-0.31234325
-0.30542479
-0.29845762
-0.29140351
-0.28422445
-0.27688311
-0.26933849
-0.26154775
-0.25353867
-0.24542417
-0.23600798
-0.22186973
-0.38643512
-0.37639402
-0.3671449
-0.35878868
-0.35048372
-0.34225539
-0.33419642
-0.32629575
-0.31850834
-0.31078353
-0.30306763
-0.29530658
-0.28744918
-0.2794473
-0.27125076
-0.26280296
-0.25405538
-0.24481608
-0.23350131
-0.21717754
-0.20463102
-0.1946382
-0.18469975
-0.17490024
-0.16517926
-0.15557651
-0.14615
-0.13693684
-0.12796538
-0.11926287
-0.11085361
-0.1027575
-0.094990613
-0.087565754
-0.080492553
-0.073777578
-0.067424518
-0.061434384
-0.055805684
-0.050534606
-0.045615214
-0.041039646
-0.036798331
-0.032880199
-0.029272904
-0.025963046
-0.022936389
-0.020178077
-0.017672838
-0.015405182
-0.013359581
-0.011520639
-0.0098732441
-0.0084027063
-0.0070948846
-0.0059362967
-0.0049142302
-0.0040168235
-0.0032332414
-0.0025535565
-0.0019696895
-0.0014730611
-0.0010630385
-0.0007220834
-0.00049442194
-0.00025267483
-0.00040088475
0.00017891411
-0.0018825398
0.002954351
-0.20605152
-0.19560911
-0.18553383
-0.17573399
-0.16597497
-0.15631975
-0.1468484
-0.13759398
-0.12858161
-0.11983926
-0.11139174
-0.1032588
-0.09545649
-0.087997653
-0.080891983
-0.074146076
-0.06776365
-0.061745734
-0.056090843
-0.050795162
-0.045852737
-0.041255681
-0.036994386
-0.033057738
-0.029433338
-0.026107729
-0.023066612
-0.020295064
-0.017777746
-0.015499097
-0.013443517
-0.011595541
-0.0099399857
-0.0084620943
-0.0071476586
-0.0059831324
-0.0049557414
-0.0040535651
-0.0032657116
-0.0025821993
-0.0019948955
-0.0014951704
-0.0010823253
-0.00073880469
-0.00050857183
-0.00026478578
-0.0004089448
0.00016952602
-0.0018716075
0.0029247295
-0.20891945
-0.19753493
-0.18719385
-0.1774391
-0.16762227
-0.15786657
-0.14831072
-0.13897774
-0.12988463
-0.12106189
-0.11253607
-0.10432685
-0.096450346
-0.08891978
-0.081745127
-0.074933173
-0.068487792
-0.062410138
-0.056698808
-0.051350027
-0.046357847
-0.041714354
-0.037409883
-0.03343324
-0.029771925
-0.026412363
-0.023340122
-0.020540137
-0.017996918
-0.015694749
-0.013617875
-0.011750671
-0.0100778
-0.0085843505
-0.0072559662
-0.0060789573
-0.0050404123
-0.0041282789
-0.0033315402
-0.0026400944
-0.0020456935
-0.0015395953
-0.0011209665
-0.00077219718
-0.00053675499
-0.00028878521
-0.00042489816
0.0001511167
-0.0018498745
0.0028660418
-0.21292907
-0.20006518
-0.18934782
-0.1797684
-0.16992493
-0.16004553
-0.1503907
-0.1409663
-0.13177203
-0.12284393
-0.1142131
-0.10589953
-0.097919653
-0.090287663
-0.083014319
-0.076106957
-0.069569892
-0.063404642
-0.057610079
-0.052182611
-0.047116403
-0.042403584
-0.038034475
-0.033997818
-0.030281007
-0.026870326
-0.023751174
-0.020908292
-0.018325984
-0.015988311
-0.013879291
-0.011983067
-0.01028407
-0.0087671604
-0.0074177582
-0.0062219563
-0.0051666344
-0.00423954
-0.0034294657
-0.0027261261
-0.0021210975
-0.0016054659
-0.0011781957
-0.00082158885
-0.00057838026
-0.00032416343
-0.00044832131
0.00012409442
-0.0018175574
0.0027794826
-0.21769475
-0.20280952
-0.1916213
-0.18242193
-0.17264371
-0.16264722
-0.15290506
-0.143405
-0.1341137
-0.12507454
-0.11632818
-0.10789631
-0.09979603
-0.092043198
-0.08465018
-0.077625469
-0.070974292
-0.064698927
-0.058798848
-0.05327092
-0.048109625
-0.043307299
-0.03885437
-0.034739601
-0.030950334
-0.027472736
-0.024292041
-0.021392786
-0.018759035
-0.016374589
-0.014223187
-0.012288683
-0.010555215
-0.0090073495
-0.0076302169
-0.0064096268
-0.0053321849
-0.0043853749
-0.003557737
-0.0028387424
-0.002219734
-0.001691569
-0.0012529428
-0.00088603967
-0.00063262497
-0.0003702022
-0.00047864887
8.9081978e-05
-0.0017751306
0.0026669354
-0.22273516
-0.20539291
-0.19366396
-0.18508113
-0.17552498
-0.16545656
-0.15565744
-0.14612112
-0.13676375
-0.12763001
-0.11877514
-0.11022624
-0.10200195
-0.094120388
-0.086596478
-0.079440783
-0.072660129
-0.066258115
-0.060235302
-0.054589413
-0.04931558
-0.044406613
-0.039853255
-0.035644451
-0.031767606
-0.028208856
-0.024953322
-0.021985358
-0.019288792
-0.016847151
-0.014643867
-0.012662466
-0.010886745
-0.0093009259
-0.0078897914
-0.0066388104
-0.0055342556
-0.0045632885
-0.0037141398
-0.002975981
-0.0023398668
-0.0017963719
-0.0013438575
-0.00096436625
-0.00069845736
-0.00042600515
-0.0005151867
4.6847384e-05
-0.0017232421
0.0025308467
-0.22756976
-0.20757945
-0.19522174
-0.18741818
-0.17831289
-0.1682947
-0.15848606
-0.14895917
-0.13958575
-0.13039494
-0.12145459
-0.11280268
-0.10446211
-0.096453902
-0.088796411
-0.081503366
-0.074584122
-0.068044318
-0.061886205
-0.05610888
-0.050708551
-0.045678845
-0.041011097
-0.036694648
-0.032717137
-0.029064787
-0.025722688
-0.022675069
-0.019905549
-0.017397384
-0.015133689
-0.013097639
-0.011272656
-0.0096425728
-0.0081917795
-0.0069053535
-0.0057691831
-0.0047700552
-0.0038958394
-0.0031353561
-0.0024793211
-0.0019179779
-0.0014492911
-0.0010551443
-0.00077465462
-0.00049053501
-0.00055714647
-1.7817616e-06
-0.0016626554
0.0023740651
-0.23188956
-0.20972765
-0.19650722
-0.18924382
-0.18078131
-0.17105303
-0.16132424
-0.15184004
-0.14249437
-0.13329001
-0.12429406
-0.11555794
-0.10711329
-0.098985431
-0.091196652
-0.083764687
-0.076702307
-0.070017891
-0.063715951
-0.057797448
-0.052260086
-0.047098655
-0.042305371
-0.037870203
-0.033781207
-0.030024836
-0.026586257
-0.023449644
-0.020598457
-0.018015708
-0.015684201
-0.013586749
-0.011706381
-0.010026512
-0.0085311043
-0.0072048032
-0.0060330695
-0.0050022711
-0.0040998709
-0.0033142931
-0.0026358691
-0.0020544671
-0.0015675949
-0.0011569704
-0.00086002877
-0.00056280425
-0.00060380021
-5.6054648e-05
-0.0015942616
0.0021997822
-0.23336081
-0.21198807
-0.19813305
-0.19047223
-0.18249609
-0.17334879
-0.16389427
-0.15452981
-0.14527492
-0.13612649
-0.12713553
-0.1183619
-0.10984932
-0.10162983
-0.09373043
-0.086173616
-0.078976555
-0.072151337
-0.065705583
-0.059642876
-0.053963106
-0.048662827
-0.04373565
-0.039172616
-0.034962556
-0.031092454
-0.027547789
-0.024312863
-0.021371113
-0.018705401
-0.016298282
-0.014132245
-0.012189933
-0.010454338
-0.0089089724
-0.0075380189
-0.0063264718
-0.0052602359
-0.0043263209
-0.0035127051
-0.0028092854
-0.0022055055
-0.0016983528
-0.0012693627
-0.00095406815
-0.00064223133
-0.00065475861
-0.00011506392
-0.0015194688
0.0020121885
-0.2239084
-0.21145853
-0.19952238
-0.19053262
-0.18254483
-0.17420365
-0.16537558
-0.15638989
-0.1474251
-0.13851145
-0.12968233
-0.12099895
-0.11251869
-0.10428518
-0.096333916
-0.088695074
-0.081392983
-0.074445969
-0.067866931
-0.061663913
-0.055840529
-0.050396398
-0.045327592
-0.040627089
-0.036285203
-0.032289998
-0.028627698
-0.025283062
-0.022239746
-0.019480632
-0.01698814
-0.014744498
-0.012731997
-0.010933205
-0.0093311666
-0.0079095649
-0.0066528822
-0.0055465062
-0.0045769359
-0.0037316436
-0.0030000322
-0.0023710578
-0.001841126
-0.0013915367
-0.0010557881
-0.00072750097
-0.00070912489
-0.00017638935
-0.001440533
0.0018171124
-0.20247054
-0.2054456
-0.19904746
-0.18936192
-0.18101715
-0.17311985
-0.16476525
-0.15610554
-0.14740155
-0.13871969
-0.1300864
-0.12155913
-0.11319953
-0.10505618
-0.097168386
-0.089569837
-0.082288371
-0.075345595
-0.068757359
-0.062534345
-0.056682509
-0.05120352
-0.046095225
-0.041352117
-0.036965788
-0.032925367
-0.029217945
-0.025828976
-0.022742657
-0.01994228
-0.017410556
-0.015129907
-0.013082734
-0.011251647
-0.0096196744
-0.0081704384
-0.0068883228
-0.0057585879
-0.0047675793
-0.003902601
-0.0031528371
-0.0025070899
-0.0019612441
-0.0014970144
-0.001144943
-0.00080517662
-0.00075632062
-0.00023691385
-0.0013565846
0.0016233395
-0.19124752
-0.19532207
-0.19080413
-0.18146582
-0.17355448
-0.16649977
-0.15902787
-0.15115841
-0.14317708
-0.13516204
-0.1271317
-0.11914005
-0.11125168
-0.10351957
-0.095987365
-0.088693389
-0.081670303
-0.074944483
-0.068536348
-0.062460897
-0.056728122
-0.051343418
-0.046308049
-0.041619607
-0.037272478
-0.033258292
-0.029566357
-0.026184084
-0.023097377
-0.020291011
-0.017748966
-0.015454747
-0.013391662
-0.011543077
-0.0098926353
-0.0084244567
-0.0071233125
-0.0059747589
-0.0049653463
-0.0040825307
-0.0033155043
-0.0026532135
-0.0020909707
-0.00161161
-0.0012413591
-0.00089053562
-0.00080518317
-0.00030757927
-0.0012564898
0.0014122527
-0.18168185
-0.18339353
-0.18016036
-0.17262746
-0.16566733
-0.15939117
-0.1527595
-0.14568863
-0.13843291
-0.13108888
-0.12367764
-0.11624771
-0.10886278
-0.10157805
-0.094439843
-0.087489478
-0.080763164
-0.074291138
-0.068097757
-0.062201922
-0.056617426
-0.051353306
-0.046414252
-0.041801052
-0.037511033
-0.033538509
-0.029875214
-0.02651073
-0.023432889
-0.020628156
-0.018081987
-0.015779157
-0.013704057
-0.011840964
-0.01017428
-0.0086887448
-0.0073696245
-0.0062028641
-0.0051752949
-0.0042745898
-0.0034899903
-0.0028106432
-0.0022312439
-0.001735924
-0.0013460752
-0.00098350133
-0.00085778541
-0.00038508843
-0.0011441374
0.0011790956
-0.17117402
-0.17057858
-0.16790094
-0.16247714
-0.15681955
-0.1513689
-0.14559906
-0.1394026
-0.13294757
-0.12633485
-0.11960049
-0.11279137
-0.10596814
-0.099186951
-0.092496404
-0.085940349
-0.079558054
-0.073383303
-0.06744424
-0.061763634
-0.056359141
-0.051243574
-0.046425251
-0.041908391
-0.03769353
-0.03377794
-0.030156062
-0.026819925
-0.02375955
-0.020963347
-0.018418479
-0.016111203
-0.014027186
-0.01215179
-0.010470326
-0.0089682852
-0.0076315433
-0.0064465291
-0.0054004341
-0.0044812117
-0.0036782005
-0.0029807823
-0.0023830459
-0.0018704421
-0.001459422
-0.0010834782
-0.00091484068
-0.00046584682
-0.0010273696
0.00093440927
-0.15981042
-0.15763381
-0.1551126
-0.15142661
-0.14711629
-0.14254699
-0.13764159
-0.13234658
-0.12674091
-0.12090764
-0.11489748
-0.1087597
-0.10255091
-0.096326252
-0.090135581
-0.084024473
-0.078034447
-0.072202206
-0.066559266
-0.061132016
-0.055941859
-0.05100539
-0.046334654
-0.041937472
-0.037817805
-0.033976142
-0.030409901
-0.027113839
-0.024080448
-0.021300352
-0.018762676
-0.016455401
-0.014365688
-0.012480179
-0.010785273
-0.0092673654
-0.0079130752
-0.0067094282
-0.0056440708
-0.0047053115
-0.0038826481
-0.0031657301
-0.0025480857
-0.0020164326
-0.0015824071
-0.0011908092
-0.00097728949
-0.0005484816
-0.00091196223
0.00068639775
-0.14733705
-0.14460811
-0.14233072
-0.13994679
-0.13685085
-0.13318427
-0.1291282
-0.12471053
-0.11995378
-0.1149141
-0.10964843
-0.10420791
-0.098645033
-0.093012509
-0.087360045
-0.081733784
-0.076176345
-0.070726318
-0.065417779
-0.060280122
-0.055338049
-0.050611636
-0.046116492
-0.041863985
-0.037861539
-0.034112965
-0.030618815
-0.027376766
-0.024381996
-0.021627568
-0.019104798
-0.01680361
-0.014712875
-0.012820715
-0.011114797
-0.0095825883
-0.008211596
-0.0069895707
-0.0059047229
-0.0049458052
-0.0041025525
-0.0033649202
-0.0027259563
-0.0021735467
-0.0017148253
-0.0013050798
-0.0010455305
-0.00063180066
-0.00080359871
0.00044355699
-0.13408923
-0.13165173
-0.12982818
-0.12839237
-0.12630046
-0.12350091
-0.1202614
-0.11667116
-0.11273035
-0.10847001
-0.10394481
-0.099206506
-0.094302642
-0.089281518
-0.08419137
-0.079077871
-0.07398361
-0.068947887
-0.064006301
-0.059190405
-0.054527517
-0.050040662
-0.045748617
-0.041666041
-0.03780367
-0.03416858
-0.030764479
-0.027592045
-0.024649264
-0.021931793
-0.019433314
-0.017145882
-0.01506026
-0.013166238
-0.011452924
-0.0099090221
-0.0085230779
-0.0072837002
-0.0061797828
-0.00520062
-0.0043362748
-0.0035770539
-0.0029156332
-0.0023409358
-0.0018560687
-0.0014256176
-0.0011197878
-0.00071469727
-0.00070807471
0.00021491272
-0.12076066
-0.11900524
-0.11775122
-0.11701317
-0.11571743
-0.11370315
-0.11122476
-0.10839701
-0.10521736
-0.1017
-0.097891106
-0.093839704
-0.089589557
-0.085183572
-0.080665963
-0.076080726
-0.071469533
-0.066871321
-0.0623221
-0.057854585
-0.053497865
-0.049277208
-0.045213987
-0.041325705
-0.03762609
-0.034125268
-0.030829983
-0.027743866
-0.024867734
-0.022199906
-0.019736536
-0.017471939
-0.015398922
-0.013509093
-0.011793163
-0.010241223
-0.0088430023
-0.0075881041
-0.0064662271
-0.0054673125
-0.0045818517
-0.0038005551
-0.0031158578
-0.002517575
-0.002005383
-0.0015517309
-0.0012001972
-0.00079644602
-0.00063058689
9.0099211e-06
-0.10786427
-0.10684153
-0.10616459
-0.10596312
-0.10529552
-0.10396291
-0.10217102
-0.10003237
-0.097547389
-0.094721054
-0.091589339
-0.088195347
-0.084578147
-0.080775927
-0.076828227
-0.072775248
-0.068656552
-0.064509852
-0.060370592
-0.056271645
-0.052242953
-0.048311217
-0.044499715
-0.040828215
-0.037312974
-0.033966811
-0.03079925
-0.027816712
-0.02502275
-0.022418322
-0.020002075
-0.017770652
-0.015718996
-0.01384065
-0.012128051
-0.010572811
-0.0091659767
-0.0078982703
-0.0067603174
-0.0057428126
-0.0048367817
-0.0040333996
-0.0033250061
-0.0027021716
-0.0021618047
-0.0016826924
-0.0012867396
-0.00087679472
-0.0005750277
-0.00016717541
-0.095664412
-0.095275405
-0.095114169
-0.095339286
-0.095170537
-0.094412353
-0.093221098
-0.091693415
-0.089831313
-0.087634868
-0.085130594
-0.082354065
-0.079338773
-0.076117672
-0.072725583
-0.069198484
-0.065572374
-0.061882638
-0.058163306
-0.054446529
-0.050762203
-0.04713763
-0.04359724
-0.040162411
-0.036851368
-0.033679166
-0.030657744
-0.027796038
-0.025100147
-0.022573546
-0.020217319
-0.018030429
-0.016009985
-0.014151532
-0.012449321
-0.010896585
-0.0094857981
-0.0082089154
-0.0070576006
-0.0060234057
-0.0050979969
-0.0042730824
-0.0035410581
-0.0028931384
-0.0023241413
-0.0018177217
-0.0013791944
-0.00095591595
-0.00054346859
-0.00030915925
-0.084288472
-0.084393578
-0.084652704
-0.085214096
-0.085439766
-0.085153804
-0.084473384
-0.083475948
-0.082162411
-0.080529583
-0.078595915
-0.076389154
-0.073936659
-0.071265882
-0.068406407
-0.065389682
-0.062247783
-0.059012756
-0.055716255
-0.052388903
-0.04905975
-0.045755892
-0.042502155
-0.039320834
-0.03623151
-0.033250945
-0.03039305
-0.027668916
-0.025086914
-0.022652829
-0.02037005
-0.018239777
-0.016261263
-0.014432059
-0.012748274
-0.011204829
-0.0097957062
-0.0085141847
-0.0073530643
-0.0063048496
-0.0053619495
-0.0045166786
-0.0037616404
-0.0030886189
-0.0024909884
-0.0019559719
-0.0014771095
-0.0010342736
-0.00053588417
-0.00041558502
-0.073788792
-0.074254224
-0.074831303
-0.075646335
-0.076176465
-0.076268547
-0.076010545
-0.075462297
-0.074622091
-0.073483921
-0.072059475
-0.070369129
-0.068433993
-0.066275913
-0.063919089
-0.061389988
-0.058716398
-0.055926664
-0.053049298
-0.050112579
-0.047143964
-0.044169611
-0.041214007
-0.038299674
-0.03544691
-0.032673614
-0.029995168
-0.0274244
-0.024971602
-0.022644602
-0.020448881
-0.018387738
-0.016462476
-0.014672613
-0.01301611
-0.011489601
-0.010088625
-0.0088078534
-0.0076412988
-0.006582502
-0.0056247079
-0.0047609136
-0.0039840753
-0.0032865136
-0.0026607425
-0.0020964973
-0.0015797731
-0.0011124281
-0.00055018786
-0.00048840227
-0.064171721
-0.064885969
-0.065687678
-0.066681098
-0.067436294
-0.067821356
-0.067902346
-0.067724512
-0.067283266
-0.0665701
-0.065591054
-0.064359945
-0.062891936
-0.061203397
-0.0593132
-0.057242724
-0.055015127
-0.052654708
-0.050186462
-0.047635698
-0.045027589
-0.042386672
-0.039736425
-0.037098922
-0.03449454
-0.03194172
-0.029456785
-0.027053828
-0.02474466
-0.022538816
-0.020443608
-0.018464227
-0.01660388
-0.014863957
-0.013244216
-0.011742992
-0.010357395
-0.0090835241
-0.0079166629
-0.0068514547
-0.0058820624
-0.005002241
-0.0042054342
-0.003484506
-0.0028316105
-0.0022382091
-0.0016861917
-0.0011908251
-0.0005826014
-0.00053248199
-0.055417999
-0.056293227
-0.057241378
-0.058347829
-0.059258999
-0.059861881
-0.060205812
-0.060324418
-0.06021073
-0.059854247
-0.05925641
-0.058425448
-0.057371187
-0.056104903
-0.054640402
-0.052994103
-0.051184475
-0.04923153
-0.047156452
-0.044981214
-0.042728175
-0.040419656
-0.038077508
-0.035722738
-0.033375186
-0.031053241
-0.028773612
-0.026551156
-0.024398758
-0.022327275
-0.02034553
-0.018460347
-0.016676636
-0.01499751
-0.013424429
-0.011957366
-0.010594984
-0.0093348169
-0.0081734476
-0.0071066717
-0.0061296375
-0.0052369291
-0.0044225996
-0.0036800961
-0.0030016215
-0.0023798354
-0.0017950897
-0.0012696216
-0.00062830196
-0.0005546944
-0.047492965
-0.048461675
-0.049493961
-0.050659671
-0.0516687
-0.052424813
-0.052964534
-0.053312429
-0.053459906
-0.053395138
-0.053116014
-0.052626208
-0.051931002
-0.051037173
-0.049953933
-0.048693057
-0.047268495
-0.045695977
-0.043992721
-0.042177125
-0.040268402
-0.038286202
-0.036250232
-0.034179881
-0.032093881
-0.030010003
-0.02794479
-0.025913344
-0.023929152
-0.022003971
-0.020147764
-0.01836868
-0.016673081
-0.015065604
-0.013549265
-0.012125575
-0.010794687
-0.0095555425
-0.0084060293
-0.0073431216
-0.0063630033
-0.0054611507
-0.004632333
-0.0038706428
-0.00316865
-0.0025199022
-0.0019049418
-0.0013485906
-0.00068221088
-0.0005626332
-0.040351873
-0.041363473
-0.04243216
-0.043615054
-0.044674961
-0.045530529
-0.046208578
-0.046726757
-0.047075609
-0.047242687
-0.047223335
-0.047017707
-0.046627423
-0.046055498
-0.045307161
-0.044390047
-0.043313935
-0.042090477
-0.040732986
-0.039256205
-0.037676017
-0.036009117
-0.03427268
-0.032484026
-0.030660287
-0.0288181
-0.026973321
-0.025140786
-0.023334098
-0.021565469
-0.0198456
-0.018183613
-0.016587021
-0.015061744
-0.013612155
-0.012241161
-0.0109503
-0.0097398625
-0.008609011
-0.0075559007
-0.0065777808
-0.0056710707
-0.0048313444
-0.0040534133
-0.00333045
-0.002656743
-0.0020140378
-0.001427118
-0.00073973705
-0.00056329446
-0.033944354
-0.034962118
-0.036031984
-0.037200631
-0.038274909
-0.039186618
-0.039955333
-0.040593533
-0.041091557
-0.041436968
-0.041623481
-0.041648707
-0.04151149
-0.041211869
-0.040751804
-0.040135402
-0.039368772
-0.038459856
-0.037418295
-0.036255285
-0.034983354
-0.033616113
-0.032167975
-0.030653865
-0.029088925
-0.027488222
-0.02586646
-0.024237732
-0.022615288
-0.021011341
-0.019436911
-0.017901712
-0.016414073
-0.014980907
-0.013607708
-0.012298587
-0.011056325
-0.0098824598
-0.0087773668
-0.0077403555
-0.006769746
-0.005862933
-0.0050163635
-0.0042256391
-0.0034847004
-0.002788537
-0.00212057
-0.0015042755
-0.00079729316
-0.00056205022
-0.028217766
-0.029216105
-0.030262264
-0.031394345
-0.0324558
-0.033389952
-0.034211029
-0.03492773
-0.035530695
-0.036008004
-0.036352516
-0.036560167
-0.036627847
-0.036553395
-0.036336235
-0.035977623
-0.035480587
-0.034849843
-0.034091742
-0.033214187
-0.032226495
-0.031139215
-0.029963915
-0.028712946
-0.027399194
-0.02603582
-0.024635997
-0.023212658
-0.021778267
-0.020344609
-0.018922604
-0.017522163
-0.016152073
-0.01481992
-0.013532044
-0.012293528
-0.011108215
-0.0099787472
-0.0089066169
-0.0078922276
-0.0069349478
-0.0060331562
-0.0051842165
-0.0043845796
-0.0036290604
-0.0029133689
-0.0022227226
-0.0015789341
-0.0008524768
-0.00056216239
-0.023119475
-0.024081564
-0.025087457
-0.026168172
-0.027197558
-0.028128943
-0.028972631
-0.029734597
-0.030406135
-0.030976211
-0.031437436
-0.031784784
-0.032013912
-0.032121166
-0.032104135
-0.031961897
-0.031695024
-0.031305567
-0.030797053
-0.03017447
-0.029444197
-0.028613886
-0.027692322
-0.026689243
-0.025615147
-0.024481073
-0.02329838
-0.022078514
-0.020832786
-0.019572161
-0.018307069
-0.017047235
-0.015801537
-0.014577896
-0.013383197
-0.012223235
-0.011102694
-0.010025144
-0.0089930595
-0.0080078452
-0.0070698636
-0.0061784588
-0.0053319254
-0.0045276021
-0.0037612376
-0.0030293031
-0.0023187469
-0.0016498789
-0.00090392856
-0.00056488988
-0.018598679
-0.019514443
-0.020470051
-0.021490625
-0.022475251
-0.023385883
-0.024229943
-0.025011458
-0.025722592
-0.026353418
-0.026896747
-0.027347148
-0.027699629
-0.027949649
-0.028093582
-0.028128958
-0.028054505
-0.027870177
-0.027577199
-0.027178093
-0.026676668
-0.026077961
-0.025388155
-0.024614467
-0.023765003
-0.022848593
-0.021874613
-0.020852789
-0.019792995
-0.018705058
-0.017598572
-0.016482721
-0.015366125
-0.014256705
-0.013161577
-0.012086967
-0.011038152
-0.010019425
-0.009034074
-0.0080843804
-0.0071716129
-0.0062960317
-0.0054568463
-0.0046522942
-0.0038790792
-0.0031344733
-0.0024070203
-0.001715905
-0.00095099381
-0.00057003255
-0.014607509
-0.01547197
-0.016372307
-0.017328683
-0.018261143
-0.019139037
-0.01996765
-0.020749613
-0.021478057
-0.022144271
-0.022741556
-0.023264483
-0.023707858
-0.02406673
-0.024336782
-0.024514543
-0.02459745
-0.02458391
-0.024473363
-0.024266347
-0.023964522
-0.023570666
-0.023088643
-0.022523343
-0.021880594
-0.021167046
-0.02039004
-0.019557455
-0.018677544
-0.017758756
-0.016809573
-0.015838337
-0.014853094
-0.013861451
-0.012870449
-0.011886458
-0.010915089
-0.0099611296
-0.0090284904
-0.0081201719
-0.0072382332
-0.0063837697
-0.0055568585
-0.0047566175
-0.0039806957
-0.0032271896
-0.0024861004
-0.0017758905
-0.00099336359
-0.00057663149
-0.011102387
-0.011914265
-0.012758068
-0.013649728
-0.014526715
-0.015364683
-0.01616731
-0.016936215
-0.017665502
-0.018347691
-0.01897674
-0.019547494
-0.020054867
-0.020493862
-0.020859874
-0.021148876
-0.021357494
-0.021483069
-0.021523745
-0.02147854
-0.021347408
-0.021131262
-0.020831986
-0.020452419
-0.019996313
-0.019468268
-0.018873644
-0.018218456
-0.017509245
-0.01675294
-0.015956716
-0.015127838
-0.014273518
-0.013400772
-0.012516287
-0.011626306
-0.010736513
-0.0098519553
-0.0089769578
-0.0081150651
-0.0072689836
-0.0064405363
-0.0056305909
-0.0048390978
-0.0040646147
-0.0033060653
-0.0025547899
-0.0018288622
-0.0010308301
-0.00058356416
-0.0080442044
-0.0088049854
-0.0095938088
-0.010422974
-0.01124443
-0.012039173
-0.012809652
-0.01355673
-0.014275433
-0.014959453
-0.01560348
-0.016202784
-0.016752595
-0.01724811
-0.017684731
-0.018058221
-0.018364769
-0.018601063
-0.018764368
-0.018852618
-0.018864473
-0.018799385
-0.01865762
-0.018440289
-0.018149334
-0.017787513
-0.017358349
-0.016866067
-0.016315508
-0.015712029
-0.01506139
-0.014369628
-0.01364293
-0.012887503
-0.012109445
-0.011314625
-0.010508567
-0.0096963442
-0.0088824884
-0.0080709014
-0.007264778
-0.0064665384
-0.0056777395
-0.0048990896
-0.0041299949
-0.0033701839
-0.0026122371
-0.001874076
-0.0010632058
-0.00058990246
-0.0053992864
-0.0061121371
-0.0068493314
-0.007619994
-0.008388086
-0.0091391162
-0.0098745709
-0.010594733
-0.011295456
-0.011971507
-0.012618302
-0.013231614
-0.013807094
-0.014340281
-0.014826779
-0.015262381
-0.015643126
-0.015965364
-0.016225831
-0.016421735
-0.016550826
-0.016611457
-0.016602641
-0.016524091
-0.016376243
-0.016160265
-0.01587805
-0.015532185
-0.015125904
-0.014663029
-0.014147884
-0.013585209
-0.012980051
-0.012337655
-0.011663355
-0.01096245
-0.010240095
-0.00950119
-0.0087502723
-0.0079914179
-0.0072281457
-0.0064633307
-0.0056990994
-0.0049368226
-0.0041766748
-0.0034191437
-0.0026579581
-0.0019110354
-0.0010903091
-0.00059501376
-0.0031416717
-0.003811434
-0.0045020379
-0.0052199234
-0.0059389434
-0.0066483601
-0.0073488935
-0.0080403648
-0.0087193461
-0.0093815456
-0.010023063
-0.010640175
-0.011228996
-0.011785475
-0.012305529
-0.012785134
-0.013220373
-0.01360749
-0.013942959
-0.014223555
-0.014446428
-0.014609164
-0.014709849
-0.014747121
-0.014720214
-0.014628993
-0.014473963
-0.014256283
-0.013977743
-0.013640737
-0.013248221
-0.012803649
-0.012310896
-0.01177418
-0.011197956
-0.010586825
-0.0099454204
-0.0092783014
-0.0085898444
-0.0078841341
-0.0071648566
-0.006435198
-0.0056977264
-0.0049543644
-0.0042059573
-0.0034536832
-0.0026923214
-0.0019398625
-0.0011122708
-0.0005986845
-0.0012452613
-0.0018769623
-0.0025264166
-0.0031976698
-0.0038726612
-0.0045437682
-0.0052110993
-0.0058740967
-0.0065299298
-0.0071751084
-0.0078063347
-0.0084203572
-0.0090137376
-0.0095828483
-0.010123962
-0.010633318
-0.011107158
-0.011541773
-0.011933559
-0.012279076
-0.012575116
-0.012818763
-0.013007455
-0.013139044
-0.01321185
-0.013224704
-0.013176991
-0.013068671
-0.012900291
-0.012672991
-0.012388479
-0.012049007
-0.011657323
-0.011216609
-0.010730414
-0.010202566
-0.0096370811
-0.0090380642
-0.008409601
-0.0077556487
-0.0070799232
-0.0063857879
-0.0056761252
-0.0049532929
-0.0042186992
-0.0034741255
-0.0027152931
-0.0019602887
-0.0011287662
-0.00060054983
0.00028589641
-0.00031469897
-0.00093019079
-0.0015628739
-0.0022010751
-0.0028396055
-0.0034780789
-0.0041156385
-0.0047499332
-0.005378122
-0.0059974078
-0.0066049455
-0.0071976941
-0.0077724141
-0.0083257249
-0.008854148
-0.009354137
-0.0098221119
-0.010254504
-0.010647808
-0.010998633
-0.011303766
-0.011560225
-0.01176532
-0.011916713
-0.012012469
-0.012051109
-0.01203165
-0.011953634
-0.011817156
-0.011622868
-0.011371973
-0.011066212
-0.010707823
-0.010299495
-0.0098443018
-0.0093456295
-0.0088070847
-0.0082323979
-0.0076253154
-0.0069894858
-0.006328344
-0.0056449761
-0.0049420631
-0.0042214626
-0.003485457
-0.0027305819
-0.0019750003
-0.0011416752
-0.00060160436
0.0014960789
0.00092114169
0.00033349977
-0.00026753793
-0.00087525611
-0.0014863995
-0.002100205
-0.0027155697
-0.0033305063
-0.0039426794
-0.0045496896
-0.0051490213
-0.005737962
-0.006313601
-0.0068728617
-0.0074125292
-0.0079292719
-0.0084196688
-0.0088802445