/*--------------------------------*- C++ -*----------------------------------*\
  =========                 |
  \\      /  F ield         | OpenFOAM: The Open Source CFD Toolbox
   \\    /   O peration     | Website:  https://openfoam.org
    \\  /    A nd           | Version:  6
     \\/     M anipulation  |
\*---------------------------------------------------------------------------*/
FoamFile
{
    version     2.0;
    format      ascii;
    class       volVectorField;
    location    "120";
    object      UMean;
}
// * * * * * * * * * * * * * * * * * * * * * * * * * * * * * * * * * * * * * //

dimensions      [0 1 -1 0 0 0 0];

internalField   nonuniform List<vector> 
9200
(
(0.0021885695 0.00054080005 -6.2234405e-20)
(0.017496681 -0.004828725 5.0043075e-20)
(0.045047528 -0.010256681 -4.0901109e-20)
(0.082095295 -0.015554728 -6.5331258e-20)
(0.12668731 -0.020533448 2.0198337e-20)
(0.17752508 -0.024763738 3.5517571e-20)
(0.23347497 -0.027963865 -1.3267679e-20)
(0.29348908 -0.029998958 1.0045849e-20)
(0.35658909 -0.030820768 1.8693225e-20)
(0.42183532 -0.03044393 1.6525111e-21)
(0.488304 -0.028934716 -2.3977846e-20)
(0.55507968 -0.02639993 2.300505e-20)
(0.62125965 -0.022975799 -4.4834991e-20)
(0.68596788 -0.018816734 -2.3645139e-20)
(0.74837686 -0.014083496 6.6081341e-21)
(0.80773409 -0.0089334692 -2.8240822e-20)
(0.86340625 -0.0034980541 2.8406213e-20)
(0.91499884 0.0022613901 2.5301478e-20)
(0.96217721 0.008471049 -2.3143058e-22)
(1.0023601 0.011856881 -1.5366849e-21)
(0.0067378138 -0.0023357459 -1.7926287e-20)
(0.031680284 -0.011982829 4.2864659e-20)
(0.069756502 -0.019448979 2.4660037e-20)
(0.11780799 -0.025186011 -1.242419e-19)
(0.17357765 -0.029419485 -1.3552916e-20)
(0.23550504 -0.031960293 7.9467064e-20)
(0.30218614 -0.032734377 -3.8453938e-20)
(0.37229239 -0.031799132 -9.2089504e-21)
(0.44456149 -0.02928126 3.7714659e-20)
(0.51777572 -0.025357318 -4.7758481e-20)
(0.59075237 -0.020245918 -3.380891e-20)
(0.66235248 -0.014197129 8.0346976e-20)
(0.73150231 -0.0074804418 4.2621123e-20)
(0.79722273 -0.00037296177 -7.5873216e-20)
(0.85866214 0.006850622 1.6322271e-20)
(0.91512719 0.013922714 -4.1009244e-20)
(0.96612004 0.020596324 -1.5640868e-20)
(1.011432 0.026716815 7.9108616e-20)
(1.0510123 0.031888495 3.4387585e-20)
(1.0831868 0.033066506 -8.6519991e-20)
(0.012706667 -0.0050992531 3.8045605e-20)
(0.049609718 -0.018525939 2.1917474e-21)
(0.099976283 -0.027254921 2.2973829e-20)
(0.16029187 -0.03249917 1.0462033e-21)
(0.22800704 -0.034983727 -4.2762492e-20)
(0.30127666 -0.034823966 2.0328727e-20)
(0.37839525 -0.032213985 1.4096637e-20)
(0.4577261 -0.027460954 -5.4643924e-20)
(0.53770945 -0.020918821 6.2646125e-20)
(0.61686069 -0.01297057 1.613893e-20)
(0.69378251 -0.0040205778 -6.0286005e-20)
(0.76719453 0.0055191622 -2.0455573e-20)
(0.8359713 0.015245605 9.5334976e-21)
(0.89918058 0.024780726 2.5995227e-20)
(0.95611551 0.033785035 -1.2547208e-20)
(1.0063136 0.041965918 3.0781037e-20)
(1.049565 0.049090773 -2.2442166e-20)
(1.0859371 0.055033234 -7.6708574e-20)
(1.1156493 0.05954036 -2.4789914e-20)
(1.1379414 0.060776973 5.2200088e-20)
(0.02018474 -0.0074975742 2.5128672e-20)
(0.071383334 -0.023756717 5.337366e-20)
(0.13566218 -0.032630435 2.0983738e-20)
(0.2092294 -0.03621481 1.4275077e-20)
(0.28926439 -0.035819986 1.8812695e-20)
(0.37362452 -0.031934701 -5.1394072e-20)
(0.46029184 -0.02508441 -2.7834606e-20)
(0.54732848 -0.015881694 0)
(0.63291393 -0.0049515508 1.6618269e-20)
(0.71537215 0.007088752 -7.2929509e-21)
(0.79320928 0.019640882 -1.0746911e-19)
(0.86516103 0.032144869 -1.7021526e-20)
(0.93023756 0.04410061 7.1797954e-20)
(0.98775583 0.055086346 4.7151079e-22)
(1.0373535 0.064771612 -1.7211946e-21)
(1.0789801 0.072922733 2.393997e-20)
(1.1128683 0.079408075 -5.49296e-21)
(1.1395047 0.084225491 -6.6410568e-20)
(1.1595095 0.087361347 -4.9856853e-20)
(1.1729158 0.087875825 7.2968224e-20)
(0.029190299 -0.0092462472 -3.7807827e-21)
(0.096875761 -0.026921848 -4.5783166e-21)
(0.17638565 -0.034502653 5.9129868e-20)
(0.26376244 -0.03507684 2.0038185e-20)
(0.35595814 -0.030619981 -3.4698697e-20)
(0.45054753 -0.022062328 1.2596689e-20)
(0.54523076 -0.010318363 2.859673e-21)
(0.63783249 0.00365209 3.699709e-20)
(0.72637688 0.018932425 6.1904161e-21)
(0.80914594 0.034675704 -1.4885347e-20)
(0.88473656 0.050121034 6.6605928e-20)
(0.9521115 0.064617077 -6.3071163e-20)
(1.0106311 0.077643517 -1.4415663e-19)
(1.0600575 0.088824093 -6.0666114e-21)
(1.1005303 0.097929184 8.9983309e-20)
(1.1325144 0.10486756 0)
(1.1567293 0.10967395 1.1142863e-20)
(1.1740772 0.11251121 -1.6456784e-20)
(1.1855268 0.11356707 -9.4802106e-21)
(1.1916677 0.1124466 2.202971e-20)
(0.039650753 -0.010039492 -4.9144746e-21)
(0.1257094 -0.027260041 4.5145471e-21)
(0.22132926 -0.031856052 -9.1457582e-21)
(0.32253808 -0.027985745 2.9449114e-20)
(0.42614081 -0.018352653 -3.1579758e-20)
(0.52949075 -0.0043838107 -1.81642e-20)
(0.63009638 0.012580284 3.8779358e-20)
(0.72567807 0.031222022 4.7742809e-21)
(0.8142811 0.050353353 -2.7411293e-20)
(0.8943563 0.068949168 7.5835048e-20)
(0.96481856 0.086165234 1.0467134e-22)
(1.0250775 0.10135786 -8.7452061e-20)
(1.0750311 0.11409424 0)
(1.1150207 0.12414763 4.2472337e-20)
(1.145754 0.13147791 5.8413027e-21)
(1.1682071 0.13620026 -8.2721319e-20)
(1.1835183 0.13855007 -2.0925492e-20)
(1.1928913 0.13886059 -1.315556e-20)
(1.197491 0.1374736 -1.5632433e-20)
(1.1981741 0.13431925 4.2748168e-20)
(0.051390213 -0.0095714738 -1.7328474e-20)
(0.15724007 -0.024061458 -3.7788116e-21)
(0.26929875 -0.023822336 3.0897716e-20)
(0.38377149 -0.014108923 3.7786732e-20)
(0.49744332 0.0016199844 -2.0897653e-20)
(0.60756564 0.021415768 -7.4068333e-20)
(0.71161261 0.043514359 -3.0584964e-20)
(0.80739987 0.066278589 8.488766e-20)
(0.89322371 0.088322559 9.7782929e-21)
(0.96794326 0.10854615 -2.6556255e-20)
(1.0310138 0.12614379 1.4373412e-20)
(1.0824702 0.14060602 -4.7035534e-21)
(1.1228611 0.15170371 0)
(1.153144 0.15945261 2.9088012e-20)
(1.1745571 0.16406326 -8.4474582e-20)
(1.1884862 0.16588342 -3.3487431e-20)
(1.196343 0.16534288 8.5777267e-20)
(1.1994695 0.1629147 -4.9751394e-21)
(1.1990605 0.1590367 3.6337578e-21)
(1.1960167 0.15382157 2.887035e-20)
(0.064124026 -0.007564269 -3.266762e-20)
(0.19056438 -0.016739501 -8.465146e-20)
(0.3187699 -0.0097773659 1.1236783e-21)
(0.44535117 0.0070174436 7.4086677e-20)
(0.56724966 0.029458166 6.5920935e-20)
(0.68179534 0.055098713 -7.4814417e-20)
(0.78664576 0.081809524 5.4261719e-22)
(0.87995752 0.10773123 9.220877e-20)
(0.96052768 0.13140856 5.2238022e-20)
(1.0278484 0.15181231 -5.8244691e-20)
(1.0820867 0.16832188 -9.8775743e-20)
(1.1240002 0.1806913 -3.3706125e-21)
(1.1548032 0.18899314 4.4834068e-20)
(1.1760069 0.19354436 -6.9053827e-21)
(1.1892564 0.19482452 -1.3377636e-20)
(1.1961872 0.19339706 2.0384354e-20)
(1.1983135 0.18984382 4.6190075e-20)
(1.196958 0.18472248 -4.5842164e-20)
(1.1932146 0.17850562 -1.0742506e-19)
(1.1878901 0.17139679 2.6139094e-20)
(0.077429345 -0.003798497 -3.6239667e-20)
(0.22448154 -0.0049061678 -1.7655604e-19)
(0.36786462 0.010577724 8.7248532e-20)
(0.50484337 0.035429875 9.7726545e-20)
(0.63273825 0.064829277 6.074831e-20)
(0.74919164 0.095918073 9.1707671e-21)
(0.85230108 0.12632307 -1.124322e-19)
(0.94082075 0.15411877 0)
(1.0142737 0.17795327 -7.3749834e-20)
(1.0729499 0.19703739 -1.6301483e-20)
(1.1178128 0.21108101 5.8107047e-20)
(1.1503403 0.220208 1.1570052e-20)
(1.1723318 0.22485194 -4.8122304e-20)
(1.1857135 0.22564386 -5.1536126e-20)
(1.1923685 0.22330676 2.5743647e-20)
(1.1940099 0.21856822 4.7341347e-20)
(1.1921034 0.2120986 -5.846527e-20)
(1.1878365 0.20447732 -1.1252943e-19)
(1.1821267 0.19615869 -3.0300891e-21)
(1.1756236 0.18738277 2.8169214e-20)
(0.090728677 0.0018720563 -4.2089255e-21)
(0.25749908 0.011615513 9.0859758e-20)
(0.4143902 0.037222982 -1.3528214e-20)
(0.55958046 0.070764522 -8.9890196e-20)
(0.69102041 0.10695604 4.7692263e-20)
(0.80692399 0.14268792 5.083473e-20)
(0.9060855 0.17553399 5.8808495e-21)
(0.9880796 0.20371089 -1.0524008e-19)
(1.0533138 0.22616982 -2.6556723e-21)
(1.1029499 0.24252963 5.350594e-20)
(1.1387319 0.2529501 6.3131357e-21)
(1.162763 0.25798795 -2.0915958e-20)
(1.1772777 0.25844708 -7.9611175e-20)
(1.1844415 0.2552392 -6.4353192e-21)
(1.1862037 0.24927032 4.5518706e-20)
(1.1842095 0.2413612 3.862353e-20)
(1.1797697 0.23220266 2.0442446e-20)
(1.1738752 0.22234022 -5.5793729e-20)
(1.1672433 0.21217275 1.2858409e-20)
(1.1603546 0.20194895 8.5681162e-20)
(-0.0013499901 0.0014680821 -6.6560336e-22)
(-0.0047744788 0.0031952738 1.7544765e-21)
(-0.010813891 0.0040736576 2.4367128e-21)
(-0.017608896 0.0043855405 -2.3385466e-22)
(-0.024251958 0.0043064114 -2.9534218e-21)
(-0.030315764 0.0039556842 3.0830889e-21)
(-0.035525495 0.0034202428 -9.3358878e-21)
(-0.039708371 0.0027625537 -8.0350536e-21)
(-0.042773427 0.0020268402 1.4147013e-20)
(-0.044683881 0.0012441734 -1.2060246e-20)
(-0.045436699 0.00043612956 -2.0666952e-22)
(-0.04504976 -0.00038257089 4.4730315e-21)
(-0.043553311 -0.0012020726 -7.072824e-22)
(-0.040984131 -0.0020158168 2.6841154e-20)
(-0.037381907 -0.0028191365 2.525643e-22)
(-0.032788751 -0.003607764 -4.7431478e-20)
(-0.027251693 -0.0043771826 8.8620196e-21)
(-0.020814399 -0.0051253625 2.7201858e-20)
(-0.013488971 -0.0058508483 -4.9755945e-20)
(-0.0053406729 -0.0065036678 -3.1293754e-20)
(-0.001708614 0.0042701365 -5.9083147e-21)
(-0.0053914598 0.0092694144 8.9729964e-21)
(-0.011156889 0.011794791 -1.0720291e-20)
(-0.017321877 0.012666211 6.8546758e-21)
(-0.023081585 0.012395549 8.0124284e-21)
(-0.02806148 0.011333066 1.0540939e-21)
(-0.032023653 0.0097337262 -3.0888646e-20)
(-0.034822054 0.0077807844 -2.5083695e-21)
(-0.03638373 0.0056039796 2.5206415e-20)
(-0.036683609 0.0032944589 -6.1991461e-21)
(-0.035726035 0.00091548992 -2.6376713e-20)
(-0.033533229 -0.001489796 5.8452275e-21)
(-0.030137637 -0.0038925805 2.6364954e-20)
(-0.025576595 -0.0062737578 1.2062484e-20)
(-0.019888566 -0.0086198125 2.5654586e-20)
(-0.013113646 -0.010918623 -2.2783178e-20)
(-0.0053035509 -0.01315751 -2.4670755e-20)
(0.0034864783 -0.015329939 2.4474247e-20)
(0.013316971 -0.017421135 3.0091221e-20)
(0.024382372 -0.01926002 1.732185e-20)
(-0.0023537144 0.0066743884 -4.8034155e-21)
(-0.0064550712 0.014413616 -4.2847283e-21)
(-0.011617117 0.018277568 -1.2182938e-22)
(-0.016496608 0.019539713 -9.7289716e-22)
(-0.020485231 0.019001288 8.1561109e-21)
(-0.023310233 0.017217412 1.2738423e-20)
(-0.024805373 0.014593089 -4.8865514e-21)
(-0.024876612 0.011419605 -2.3131373e-20)
(-0.023486327 0.0079035294 8.0299089e-21)
(-0.020632884 0.0041902372 1.5591809e-20)
(-0.016335976 0.00038076345 7.2665256e-21)
(-0.01062765 -0.0034559861 2.1135815e-20)
(-0.0035463803 -0.0072741112 2.0244569e-21)
(0.0048672044 -0.011043578 -3.8886164e-20)
(0.014574069 -0.014743486 1.7997015e-21)
(0.02553519 -0.018355515 -2.4486451e-20)
(0.037688578 -0.021862519 -2.8418437e-20)
(0.050953166 -0.025255918 5.2432934e-20)
(0.065509317 -0.028482115 2.9056176e-20)
(0.082055677 -0.03117161 7.4149765e-22)
(-0.0031585483 0.0084635641 -6.0693903e-21)
(-0.0076757669 0.018114667 -1.3193097e-20)
(-0.011832403 0.022835323 4.5715131e-21)
(-0.014749124 0.024225912 5.065961e-21)
(-0.016088282 0.023304738 2.1921754e-21)
(-0.015719774 0.020791282 9.6475679e-21)
(-0.013579328 0.017212245 1.1779476e-20)
(-0.0096480126 0.012946752 -1.7952711e-21)
(-0.0039405467 0.0082643635 -1.3903812e-20)
(0.0035084833 0.003355308 -3.4738709e-20)
(0.012653977 -0.0016479336 2.3583743e-22)
(0.023445275 -0.0066548946 4.7501781e-20)
(0.035830296 -0.01160568 -2.0817089e-20)
(0.049757082 -0.016461421 -1.4133784e-20)
(0.065177805 -0.021196177 1.1592655e-22)
(0.082047115 -0.025789315 3.6937015e-20)
(0.10028604 -0.030226559 -1.7649366e-20)
(0.119769 -0.034507272 -5.9721629e-20)
(0.14079939 -0.038515296 5.0510003e-20)
(0.16478887 -0.041563728 3.6769516e-20)
(-0.0039542247 0.009491457 -2.9581763e-22)
(-0.0086590877 0.020014246 -1.3828372e-20)
(-0.011297866 0.024978478 -4.1454138e-20)
(-0.011531725 0.026162763 -7.9446283e-21)
(-0.0093432461 0.024715327 -3.1797812e-21)
(-0.0047753361 0.021469901 7.8799828e-21)
(0.0021099329 0.017039269 -6.0405886e-21)
(0.011236185 0.01186457 -1.0822315e-20)
(0.02251978 0.0062602288 2.5914573e-20)
(0.035875461 0.00044864205 5.7275687e-21)
(0.051219969 -0.0054147766 -3.0099548e-20)
(0.068471666 -0.011223665 1.2542015e-20)
(0.087550825 -0.016907584 0)
(0.10838 -0.022421999 1.3785217e-20)
(0.13088695 -0.027739425 -1.1002188e-20)
(0.15500398 -0.032841957 -1.6442007e-20)
(0.18062144 -0.037728299 -6.2173381e-22)
(0.2075472 -0.042426583 -2.9017097e-21)
(0.23616516 -0.046757637 4.9733101e-20)
(0.26874025 -0.049579904 -1.2974363e-20)
(-0.004548777 0.0096923424 -8.0015067e-21)
(-0.0089412919 0.019935108 2.8088968e-20)
(-0.0093998064 0.024455605 -1.2849054e-20)
(-0.0061567686 0.025060356 -3.1867448e-20)
(0.00045996755 0.022936002 -3.0820347e-20)
(0.010214947 0.018976245 -1.7509111e-20)
(0.022901685 0.013839899 -1.0579011e-21)
(0.038331288 0.0080000578 6.5658138e-21)
(0.056335488 0.0017947389 2.2668884e-20)
(0.076762925 -0.0045360229 8.4881241e-21)
(0.099473597 -0.010824343 -8.141552e-21)
(0.12433583 -0.016955305 -1.918165e-21)
(0.1512223 -0.022853354 -4.3576041e-20)
(0.18000727 -0.028472364 -1.4383143e-20)
(0.21056816 -0.033787303 2.185334e-20)
(0.24278691 -0.038788358 -2.4099776e-20)
(0.27650002 -0.043497573 -1.0065642e-20)
(0.31142478 -0.048000048 3.2995254e-20)
(0.34795176 -0.052090073 5.4782004e-20)
(0.38923943 -0.054065796 3.832117e-21)
(-0.0047438855 0.0090766597 1.7719117e-20)
(-0.0080236242 0.017882018 1.5355588e-20)
(-0.0054524683 0.021267318 5.7021378e-20)
(0.0021709254 0.020929653 2.6943742e-20)
(0.014168884 0.018006033 2.1427304e-22)
(0.030103309 0.013395493 -4.5723381e-20)
(0.049610771 0.0077615028 -2.7775209e-20)
(0.0723765 0.0015783532 1.200552e-20)
(0.098128612 -0.0048157484 1.6467032e-20)
(0.1266277 -0.011180785 -1.469099e-20)
(0.15765478 -0.01734945 -5.0369284e-20)
(0.19100184 -0.023208557 3.38118e-20)
(0.2264642 -0.028685658 2.2329637e-20)
(0.26383473 -0.03373994 -3.1091675e-20)
(0.30290368 -0.038355369 1.3310541e-20)
(0.3434628 -0.042537363 2.6988008e-20)
(0.38526029 -0.046341261 9.1982623e-21)
(0.4278984 -0.049939284 -1.375358e-20)
(0.47168869 -0.053176618 -1.4787719e-20)
(0.52060303 -0.05377777 8.6156258e-21)
(-0.0043461487 0.0077176154 1.2067133e-20)
(-0.0054001681 0.014022024 -2.6747009e-20)
(0.0012653913 0.015652836 8.3897561e-21)
(0.014313079 0.014079438 3.7903975e-20)
(0.032724528 0.010308302 5.7861765e-20)
(0.055856128 0.0051924693 2.2847886e-20)
(0.083177758 -0.00063956169 -6.5730345e-21)
(0.1142299 -0.0067453292 -1.3859657e-20)
(0.14861593 -0.012811399 -7.1155708e-21)
(0.18598206 -0.018617739 3.8795419e-20)
(0.22599798 -0.024014366 -5.4188949e-21)
(0.26834244 -0.028904134 -1.9036195e-20)
(0.31269231 -0.033230525 -2.1966618e-20)
(0.35871492 -0.036969999 -5.3441659e-20)
(0.40606726 -0.040127176 2.586083e-20)
(0.45440436 -0.042734525 -1.5691152e-20)
(0.50334867 -0.044894213 2.9183226e-20)
(0.55237633 -0.046899691 2.3560103e-20)
(0.60165865 -0.048766533 -9.1934361e-20)
(0.65578665 -0.047808459 5.9347374e-22)
(-0.0031743216 0.0057359589 2.338887e-20)
(-0.00058440839 0.0086593369 -2.9113455e-20)
(0.011462904 0.0080696843 -4.9002671e-20)
(0.031127498 0.0051066602 -3.0098058e-20)
(0.057067416 0.00057420281 -2.2787037e-21)
(0.088429183 -0.0047694881 1.4718806e-20)
(0.12450263 -0.010370586 -3.1920813e-21)
(0.16466423 -0.015850847 2.0231329e-20)
(0.20836392 -0.020949489 9.8800152e-21)
(0.25509762 -0.025490515 -1.275573e-20)
(0.30438197 -0.029362793 1.0230908e-20)
(0.35573637 -0.032505044 -2.6878177e-20)
(0.40867064 -0.034894992 9.5378067e-21)
(0.46267717 -0.036542577 1.8855005e-20)
(0.51723057 -0.037485828 -3.2706497e-21)
(0.57179833 -0.037792455 2.0745558e-21)
(0.62582676 -0.037612773 -7.5844883e-22)
(0.67864857 -0.037345343 2.2112707e-20)
(0.73026849 -0.03719554 3.9504949e-21)
(0.78566394 -0.034562485 -3.2502431e-21)
(-0.0010599244 0.0032879092 2.566657e-20)
(0.0068709433 0.0022192309 6.2891152e-20)
(0.025782394 -0.00081051806 -5.3127746e-20)
(0.053369657 -0.0050865837 -1.0919528e-20)
(0.087982402 -0.010079713 2.2380271e-20)
(0.1285537 -0.015174145 2.3588318e-21)
(0.17417763 -0.019931504 -3.2891549e-20)
(0.22403961 -0.024074994 7.7532904e-21)
(0.27739989 -0.027430253 7.8666552e-21)
(0.3335616 -0.029896894 -2.9244362e-20)
(0.39184323 -0.031432871 1.4347629e-21)
(0.45156189 -0.032041653 -4.1678902e-20)
(0.5120247 -0.031761693 -4.0786092e-20)
(0.57252656 -0.030657981 7.3758827e-20)
(0.63235392 -0.02881463 6.2377685e-21)
(0.69079249 -0.026333689 -1.6964969e-20)
(0.74711363 -0.023374704 2.1528591e-20)
(0.80050285 -0.020239313 -1.0018897e-21)
(0.85051516 -0.016955154 2.1404915e-20)
(0.90079868 -0.012028923 -2.2678827e-20)
(0.0043489478 -0.0067925959 6.5714558e-20)
(0.015699453 -0.0073010424 1.717178e-20)
(0.028498901 -0.0077031374 -3.8294981e-20)
(0.042386633 -0.007925729 1.8605313e-20)
(0.057075016 -0.0080544557 0)
(0.072491553 -0.0081198523 0)
(0.088568725 -0.0081250812 -2.4491547e-20)
(0.10521776 -0.0080783214 -1.7362587e-20)
(0.12235834 -0.0079897633 2.0324004e-20)
(0.13992206 -0.0078669326 1.9059355e-20)
(0.15784606 -0.0077155694 1.0306799e-21)
(0.17607118 -0.0075407279 -1.0496056e-20)
(0.19454228 -0.0073468338 8.7637201e-21)
(0.21320801 -0.0071376505 1.8275947e-20)
(0.23202018 -0.0069164012 -5.5462025e-21)
(0.25093339 -0.0066858833 -1.0005734e-20)
(0.26990482 -0.0064485351 -4.2051749e-21)
(0.28889406 -0.0062064895 -4.1506932e-21)
(0.30786298 -0.0059616203 6.6231148e-22)
(0.32677566 -0.005715581 1.1981194e-21)
(0.34559834 -0.0054698334 2.589003e-21)
(0.36429945 -0.0052256701 6.3402392e-21)
(0.38284957 -0.0049842324 5.4920214e-23)
(0.40122148 -0.0047465233 -3.2606658e-21)
(0.41939016 -0.0045134185 1.0728584e-22)
(0.43733281 -0.0042856751 -5.3623868e-22)
(0.45502887 -0.0040639388 1.1456851e-21)
(0.47245996 -0.0038487509 9.0061151e-22)
(0.48960994 -0.0036405546 -1.2847113e-21)
(0.50646478 -0.0034397017 -8.171232e-23)
(0.52301259 -0.003246459 -1.0866359e-22)
(0.53924351 -0.0030610151 -3.1012267e-22)
(0.55514964 -0.0028834876 -4.1397017e-22)
(0.570725 -0.0027139303 1.2012617e-22)
(0.58596538 -0.0025523409 -1.1817158e-22)
(0.60086833 -0.0023986686 -1.749023e-22)
(0.61543303 -0.0022528219 1.9770611e-22)
(0.62966027 -0.002114677 2.194111e-22)
(0.64355233 -0.0019840873 -5.3258201e-23)
(0.65711334 -0.0018608886 -1.7041197e-22)
(0.67034803 -0.0017449285 3.666178e-24)
(0.68326611 -0.0016360217 -1.1946346e-23)
(0.69586949 -0.0015341681 6.9041405e-23)
(0.70819279 -0.001438967 -4.8539439e-23)
(0.72018444 -0.0013516527 -1.5119291e-22)
(0.73206448 -0.0012690554 1.6740937e-23)
(0.74328737 -0.0012030866 1.1664364e-23)
(0.75556677 -0.0011222433 -6.7333718e-24)
(0.76422904 -0.0011319229 2.2841624e-23)
(0.78239859 -0.00096537077 3.8117462e-22)
(0.035271928 -0.019990427 -1.4991298e-20)
(0.045574301 -0.021534314 -6.9853979e-20)
(0.057810608 -0.022716542 -3.4275548e-20)
(0.071108042 -0.023350243 4.2294058e-20)
(0.085058852 -0.023719474 1.6005348e-20)
(0.099672341 -0.023912864 -2.0152442e-20)
(0.11491471 -0.023931884 5.6098659e-21)
(0.13070036 -0.023799054 2.6869282e-20)
(0.14695645 -0.023544689 -4.0323446e-22)
(0.16362445 -0.023190422 -8.2230248e-21)
(0.18064889 -0.022752476 -1.2814324e-20)
(0.19797609 -0.022245351 -9.1489363e-21)
(0.21555558 -0.021681842 1.804807e-20)
(0.23333991 -0.021072841 1.0121521e-20)
(0.25128404 -0.020427703 -1.5978828e-20)
(0.26934511 -0.019754581 -5.9816712e-21)
(0.28748233 -0.019060613 3.0185655e-21)
(0.30565694 -0.018352069 7.9344466e-21)
(0.32383211 -0.017634477 6.8870394e-21)
(0.34197293 -0.016912733 -7.1436894e-21)
(0.36004646 -0.01619118 -3.5387711e-21)
(0.37802169 -0.015473671 1.7296878e-21)
(0.39586964 -0.014763617 8.7590737e-22)
(0.41356339 -0.014064025 1.2687801e-21)
(0.43107807 -0.013377527 2.8065798e-22)
(0.44839095 -0.012706405 -4.0917135e-22)
(0.46548139 -0.012052609 -7.6580891e-22)
(0.48233092 -0.011417783 1.1452662e-21)
(0.49892314 -0.010803275 9.0384959e-22)
(0.51524378 -0.010210164 -3.6595368e-22)
(0.53128057 -0.0096392739 6.2871972e-22)
(0.54702324 -0.0090911944 -2.1084461e-22)
(0.56246346 -0.008566304 -4.4458264e-22)
(0.57759471 -0.0080647902 -6.2968003e-22)
(0.59241225 -0.0075866721 3.7874332e-22)
(0.60691305 -0.0071318232 -1.8777614e-22)
(0.62109568 -0.0066999955 2.683046e-22)
(0.63496032 -0.0062908423 -4.8502629e-22)
(0.64850859 -0.0059039499 5.0801063e-22)
(0.66174395 -0.0055388492 5.4784853e-23)
(0.6746705 -0.0051951072 -2.2009613e-23)
(0.68729724 -0.0048721901 2.452308e-22)
(0.69962546 -0.004570119 3.3170689e-22)
(0.7116889 -0.0042877114 2.5787332e-22)
(0.72343596 -0.0040286808 2.8597889e-22)
(0.73508376 -0.0037835571 -1.0509299e-23)
(0.74609263 -0.0035879438 1.4755201e-22)
(0.75815445 -0.0033477984 1.278949e-22)
(0.76665624 -0.0033772626 -2.1196997e-22)
(0.7845366 -0.0028822922 1.4362159e-23)
(0.095125835 -0.032000486 1.097628e-20)
(0.10337356 -0.034590988 4.3321701e-21)
(0.11439784 -0.03650233 -1.51558e-20)
(0.12649649 -0.037475483 -1.9929821e-21)
(0.13897021 -0.038054448 1.6995702e-20)
(0.15198617 -0.038380086 -1.617487e-20)
(0.16558432 -0.038433011 -3.2759768e-20)
(0.1796816 -0.038244224 1.6075629e-20)
(0.19421639 -0.037863279 1.9838377e-20)
(0.20914835 -0.037323729 -1.2526715e-20)
(0.22443536 -0.036649758 1.0658421e-21)
(0.24003325 -0.035863537 8.1932266e-21)
(0.25589958 -0.034985003 -1.6175489e-20)
(0.27199363 -0.0340312 4.5052641e-21)
(0.28827575 -0.033016838 8.0329088e-21)
(0.30470735 -0.031954847 -9.7813365e-22)
(0.32125108 -0.030856644 -3.5662367e-22)
(0.33787088 -0.029732335 -7.8188541e-21)
(0.35453206 -0.028590894 4.8998837e-21)
(0.37120135 -0.027440326 8.8144301e-21)
(0.38784706 -0.026287775 -3.9457826e-21)
(0.40443912 -0.025139615 -2.1362353e-21)
(0.42094919 -0.024001519 7.7804106e-22)
(0.43735073 -0.022878511 -1.8234133e-21)
(0.45361909 -0.021775011 1.2732368e-21)
(0.46973152 -0.020694869 6.716158e-22)
(0.48566724 -0.019641395 2.025381e-21)
(0.50140746 -0.018617391 -2.354204e-21)
(0.51693535 -0.017625178 2.6638223e-21)
(0.53223604 -0.016666627 6.2313295e-22)
(0.54729661 -0.015743191 7.8896263e-22)
(0.562106 -0.014855933 2.8455662e-22)
(0.576655 -0.014005566 1.1357708e-21)
(0.59093615 -0.013192485 -1.7135345e-21)
(0.60494371 -0.012416803 4.8584255e-22)
(0.61867355 -0.011678392 3.1286906e-22)
(0.63212313 -0.010976919 -1.0779795e-22)
(0.64529147 -0.010311886 -4.4030602e-23)
(0.65817899 -0.0096826811 -4.2519191e-22)
(0.67078794 -0.0090885976 2.570804e-22)
(0.68312119 -0.0085289866 -2.5452182e-23)
(0.69518646 -0.0080030278 6.6922939e-22)
(0.70698392 -0.0075108204 -3.0639861e-22)
(0.71854563 -0.0070504571 2.9270748e-23)
(0.72981995 -0.0066281479 1.0030172e-22)
(0.74101854 -0.0062282617 -1.0989074e-22)
(0.75161282 -0.0059096261 -1.8700638e-22)
(0.763253 -0.0055172665 6.1690151e-22)
(0.77144321 -0.0055674068 1.8862608e-22)
(0.78876236 -0.0047582645 -8.7068243e-22)
(0.18062374 -0.042022839 2.0892462e-21)
(0.1858679 -0.045646698 -1.2020293e-20)
(0.19491404 -0.048211192 6.5499667e-21)
(0.20516365 -0.049442422 -1.4719564e-20)
(0.21542574 -0.050208067 -2.1694149e-21)
(0.22606986 -0.050689127 1.067358e-20)
(0.23725818 -0.050822608 -1.1894658e-20)
(0.24890757 -0.050638761 7.4090851e-22)
(0.26096456 -0.050203579 1.3769056e-20)
(0.27341212 -0.049559752 4.1885932e-21)
(0.28622554 -0.048736198 -6.520243e-21)
(0.29937186 -0.047760114 -3.5267309e-21)
(0.31281787 -0.046656733 -5.2814324e-21)
(0.32653072 -0.045447931 -7.0706251e-21)
(0.34047699 -0.04415276 2.3922345e-21)
(0.35462293 -0.042788166 -1.9599849e-22)
(0.36893494 -0.04136931 1.7459844e-21)
(0.38337991 -0.039909771 -3.3794714e-21)
(0.39792539 -0.038421746 -4.8721932e-21)
(0.41253982 -0.03691621 2.6572663e-21)
(0.42719272 -0.035403049 3.7629791e-21)
(0.44185488 -0.03389115 -2.0741508e-21)
(0.45649849 -0.032388481 1.7690178e-21)
(0.47109726 -0.030902143 -6.1449874e-22)
(0.48562657 -0.029438422 -4.6324332e-21)
(0.50006347 -0.028002827 -3.0836638e-21)
(0.5143868 -0.026600131 -3.8316221e-22)
(0.52857722 -0.025234403 2.1080642e-22)
(0.54261719 -0.023909049 -2.2009161e-21)
(0.55649099 -0.022626849 -1.2533792e-21)
(0.57018471 -0.021389999 2.0492575e-22)
(0.58368621 -0.020200154 -1.5219297e-21)
(0.59698506 -0.019058478 -1.2372994e-22)
(0.61007251 -0.017965688 -5.850572e-22)
(0.62294143 -0.016922109 -4.1058262e-22)
(0.63558626 -0.015927723 -8.3922082e-22)
(0.64800293 -0.014982223 -1.2445138e-21)
(0.66018891 -0.014085069 2.4700759e-23)
(0.67214303 -0.013235556 -3.130908e-24)
(0.6838659 -0.012432842 -7.0122913e-22)
(0.69535877 -0.01167616 4.769039e-23)
(0.70662763 -0.010964499 -5.0165841e-22)
(0.71767115 -0.010298117 -7.8152468e-22)
(0.7285191 -0.0096744783 5.9393686e-22)
(0.73911991 -0.0091022864 1.2698745e-23)
(0.74967747 -0.008560032 2.9721856e-22)
(0.75967927 -0.0081288388 -2.1909143e-22)
(0.77071556 -0.0075958407 -4.1566692e-22)
(0.77845952 -0.007667562 8.8067783e-24)
(0.7949717 -0.0065677202 5.0572554e-22)
(0.28737298 -0.049226834 -2.4728746e-20)
(0.28870025 -0.053865927 5.2028287e-20)
(0.29487719 -0.056998287 1.1069531e-20)
(0.302555 -0.058434039 -1.7496107e-20)
(0.30988582 -0.059402051 -2.9142948e-21)
(0.31742455 -0.06009784 2.1472086e-21)
(0.32550155 -0.060398265 -2.4852114e-21)
(0.33403591 -0.060322867 -5.0347938e-21)
(0.34297124 -0.059946834 -4.3006042e-21)
(0.35231244 -0.059318448 -1.2994996e-20)
(0.36205361 -0.058468891 1.9822005e-20)
(0.3721723 -0.057427687 7.4545871e-21)
(0.38264308 -0.056223185 -1.7471367e-20)
(0.3934399 -0.054880696 9.642589e-21)
(0.40453468 -0.053422682 7.5717247e-21)
(0.41589762 -0.051869423 7.9005979e-23)
(0.42749809 -0.05023937 -2.5120386e-21)
(0.43930514 -0.048549316 -4.6945647e-21)
(0.45128789 -0.046814551 -1.7900846e-21)
(0.46341584 -0.045048999 -1.5797333e-21)
(0.47565916 -0.043265328 -3.6867089e-21)
(0.48798896 -0.041475032 0)
(0.50037747 -0.039688493 -1.6335736e-21)
(0.51279824 -0.037915037 4.0428971e-21)
(0.52522621 -0.036162973 5.9598561e-21)
(0.5376379 -0.034439637 -8.7845567e-22)
(0.5500114 -0.032751429 -3.6342941e-21)
(0.56232648 -0.031103858 3.8712436e-21)
(0.5745646 -0.029501579 -1.5588564e-22)
(0.58670888 -0.027948447 4.0980068e-21)
(0.59874415 -0.026447563 -4.8208535e-22)
(0.61065691 -0.025001334 1.880744e-21)
(0.62243527 -0.023611529 -1.0086038e-21)
(0.63406893 -0.02227934 5.276068e-22)
(0.64554914 -0.021005448 -6.3681383e-22)
(0.65686864 -0.01979009 6.0553018e-22)
(0.66802162 -0.018633125 6.1231357e-22)
(0.67900376 -0.017534103 5.1608649e-22)
(0.68981205 -0.016492358 -1.2572639e-21)
(0.70044525 -0.015507038 9.019654e-22)
(0.71090273 -0.014577377 -4.6500114e-22)
(0.72118854 -0.013702284 -1.6050526e-21)
(0.7312996 -0.012882279 2.0493489e-21)
(0.74126303 -0.012114314 -4.8747482e-23)
(0.75102751 -0.011409563 -2.348695e-22)
(0.76078729 -0.010741034 -6.3441578e-24)
(0.77005039 -0.010210816 -2.5803208e-22)
(0.78033108 -0.0095524191 -7.0815553e-22)
(0.78751729 -0.0096465438 7.0121862e-22)
(0.80301367 -0.0082871808 -5.5286946e-23)
(0.41007799 -0.052648632 -2.0779516e-20)
(0.40664132 -0.058346591 1.3609007e-20)
(0.4089864 -0.062008926 4.5874677e-21)
(0.4133093 -0.063687907 -8.5368268e-21)
(0.41704325 -0.064955483 1.3304776e-20)
(0.42083277 -0.065981441 8.5626996e-21)
(0.42519788 -0.066586324 -1.3099738e-20)
(0.4300771 -0.066776046 -6.5682672e-21)
(0.43539643 -0.066622266 1.3646189e-20)
(0.44117049 -0.066172461 -1.7594367e-20)
(0.44740935 -0.065458719 -1.4876505e-20)
(0.45409896 -0.064511416 1.6258951e-20)
(0.46121812 -0.063360197 7.1824939e-21)
(0.46874431 -0.062032646 -6.0426931e-21)
(0.47665236 -0.060554073 -9.1818548e-22)
(0.48491444 -0.058947805 -3.2148598e-21)
(0.4935011 -0.057235451 4.4150638e-21)
(0.50238204 -0.055437033 3.704419e-21)
(0.51152664 -0.053571062 -3.0320144e-21)
(0.5209043 -0.051654603 3.1119318e-21)
(0.53048488 -0.049703343 3.1225088e-21)
(0.54023893 -0.047731641 -3.5231284e-21)
(0.55013798 -0.045752566 3.6424465e-22)
(0.5601547 -0.04377794 -3.1301873e-21)
(0.57026307 -0.041818363 8.9437188e-21)
(0.5804385 -0.039883258 6.8894276e-21)
(0.5906579 -0.037980906 1.248347e-21)
(0.60089975 -0.03611849 -1.9018714e-21)
(0.61114414 -0.034302145 4.773482e-21)
(0.62137274 -0.032537016 8.8378806e-21)
(0.63156888 -0.030827317 2.4832222e-21)
(0.64171745 -0.029176401 4.056203e-21)
(0.65180491 -0.027586828 2.2715783e-21)
(0.66181925 -0.026060443 9.5037726e-22)
(0.67174995 -0.024598455 -2.3057258e-22)
(0.68158796 -0.023201516 3.4156979e-21)
(0.69132562 -0.021869806 7.6257868e-22)
(0.70095672 -0.020603114 3.4036916e-22)
(0.71047636 -0.019400954 5.7717871e-23)
(0.71988137 -0.018262597 1.4024142e-21)
(0.72916918 -0.017187407 3.8448279e-23)
(0.73834182 -0.016174338 6.8973072e-22)
(0.74739447 -0.015224271 -1.2688132e-22)
(0.75635137 -0.014333772 -5.0064046e-22)
(0.76516175 -0.01351644 -2.3904476e-22)
(0.77400879 -0.012740269 -6.5083283e-22)
(0.78242491 -0.012126672 2.9843319e-22)
(0.79183512 -0.011360713 -1.8951759e-22)
(0.79838013 -0.011477944 -4.0196375e-22)
(0.81269654 -0.0098958781 3.1169657e-22)
(0.54247652 -0.051378937 3.2745253e-21)
(0.53366411 -0.058195136 -1.9668762e-20)
(0.53127151 -0.062410901 -2.8174338e-21)
(0.53148567 -0.064532768 5.8837448e-21)
(0.53111517 -0.066335684 4.0383469e-21)
(0.53070618 -0.067894406 1.1406899e-21)
(0.53093326 -0.069002591 8.0160932e-21)
(0.53179573 -0.069667672 8.6003369e-21)
(0.53319987 -0.069947812 1.0321075e-20)
(0.53514778 -0.069881045 -1.2376065e-20)
(0.53765499 -0.069498629 -2.4075184e-20)
(0.54071279 -0.06883182 -4.9944396e-21)
(0.54430056 -0.067911132 1.7548659e-20)
(0.54839513 -0.066766047 1.3909438e-20)
(0.55297098 -0.065424778 -5.6117185e-21)
(0.55799982 -0.063914012 5.0028267e-22)
(0.56345136 -0.062258907 -4.6380021e-21)
(0.56929426 -0.06048314 3.8155312e-21)
(0.5754967 -0.058608897 -2.9528956e-22)
(0.5820268 -0.056656847 -2.0571521e-21)
(0.58885302 -0.054646152 9.0744083e-21)
(0.59594444 -0.052594474 -6.585161e-22)
(0.60327108 -0.050517991 7.5780897e-22)
(0.61080404 -0.048431411 -2.9598942e-22)
(0.61851572 -0.046347998 -4.6914404e-21)
(0.62637987 -0.044279605 4.571447e-21)
(0.63437176 -0.042236711 1.7942132e-21)
(0.64246816 -0.040228472 -3.5605821e-21)
(0.65064747 -0.038262778 -4.0540995e-21)