/*--------------------------------*- C++ -*----------------------------------*\
  =========                 |
  \\      /  F ield         | OpenFOAM: The Open Source CFD Toolbox
   \\    /   O peration     | Website:  https://openfoam.org
    \\  /    A nd           | Version:  6
     \\/     M anipulation  |
\*---------------------------------------------------------------------------*/
FoamFile
{
    version     2.0;
    format      ascii;
    class       volScalarField;
    location    "306";
    object      pPrime2Mean;
}
// * * * * * * * * * * * * * * * * * * * * * * * * * * * * * * * * * * * * * //

dimensions      [0 4 -4 0 0 0 0];

internalField   nonuniform List<scalar> 
9200
(
0.036798895
0.030509632
0.025184705
0.021717522
0.018949502
0.016616043
0.014602175
0.012849243
0.011318202
0.0099777945
0.0088021393
0.0077695553
0.0068617454
0.0060631751
0.0053605875
0.0047426473
0.004199758
0.0037239098
0.0033091025
0.0029474475
0.029856741
0.02470857
0.020403053
0.017572427
0.015300851
0.013380135
0.011719966
0.010274257
0.0090119723
0.0079081068
0.0069417954
0.0060953989
0.0053538784
0.0047043118
0.0041355236
0.0036378196
0.0032028467
0.0028233994
0.0024927249
0.0022011868
0.023347167
0.019296608
0.015948505
0.013717315
0.011912197
0.010378279
0.0090488816
0.0078900839
0.0068787351
0.0059959152
0.0052255291
0.0045536691
0.0039681946
0.0034584223
0.0030149044
0.0026292833
0.0022942095
0.0020031846
0.0017496642
0.0015250727
0.017450656
0.014419526
0.01193799
0.010251971
0.0088704883
0.0076871811
0.0066573183
0.0057584125
0.004974768
0.0042930713
0.0037014744
0.0031892662
0.002746706
0.0023649329
0.0020359265
0.0017524953
0.0015082628
0.0012975643
0.0011148043
0.00095349244
0.012329788
0.010208328
0.008479167
0.0072692943
0.006257576
0.0053799641
0.0046113603
0.0039396017
0.0033556609
0.0028510336
0.0024173462
0.0020463952
0.0017302881
0.0014616006
0.0012335207
0.0010399484
0.00087553081
0.00073560416
0.00061585621
0.00051192936
0.0081278356
0.006777152
0.0056675052
0.0048523575
0.0041472087
0.0035230863
0.002971587
0.002489331
0.0020727895
0.0017171853
0.0014166805
0.0011648416
0.00095510985
0.00078118975
0.00063732557
0.00051845723
0.00042025948
0.00033909411
0.00027188283
0.00021592932
0.0049646052
0.0042205528
0.0035841885
0.0030726231
0.0026034556
0.0021748143
0.0017914561
0.0014568153
0.0011713711
0.0009328216
0.00073689196
0.0005782411
0.00045122495
0.00035044349
0.00027107103
0.00020900141
0.00016085247
0.00012390254
9.6070344e-05
7.5776399e-05
0.0029334037
0.002611644
0.0022946389
0.0019885708
0.0016793044
0.0013836815
0.001115578
0.00088294038
0.00068858478
0.00053141178
0.00040782066
0.00031300136
0.00024189568
0.00018980045
0.00015266975
0.00012720087
0.00011078589
0.00010142431
9.7729971e-05
9.8772938e-05
0.002098447
0.0020000419
0.0018457723
0.0016427207
0.0014139244
0.0011862069
0.00097794684
0.00079899169
0.00065275496
0.00053818369
0.00045165017
0.00038847919
0.00034396038
0.00031390159
0.00029484492
0.00028407535
0.00027952453
0.00027966413
0.00028348492
0.00029032381
0.0024921002
0.0024102232
0.0022631312
0.0020588765
0.0018300545
0.0016041755
0.0013990268
0.0012236427
0.0010804305
0.00096747465
0.00088064123
0.00081512747
0.00076637296
0.00073048042
0.0007043276
0.00068550911
0.00067221339
0.00066310458
0.00065723597
0.0006538833
0.087259126
0.073389781
0.060655879
0.052603599
0.046209799
0.040842904
0.036222111
0.03219593
0.028670572
0.025572328
0.022840984
0.020426686
0.018287679
0.016388663
0.014699578
0.013194677
0.011851803
0.010651106
0.0095739512
0.0086095574
0.086148899
0.072385031
0.059796921
0.051837112
0.045523389
0.04022489
0.035663293
0.031689598
0.028211092
0.025154776
0.022461003
0.020080402
0.01797163
0.016099751
0.014435024
0.012951996
0.011628799
0.010445877
0.0093844837
0.0084342103
0.083884261
0.070395777
0.058122692
0.050360772
0.044211001
0.03905115
0.034608889
0.030739883
0.027353851
0.024379549
0.02175872
0.019443132
0.017392392
0.015572374
0.013954043
0.012512566
0.011226668
0.010077374
0.0090459965
0.0081223118
0.080504766
0.067470318
0.05568156
0.048220403
0.042314116
0.037359242
0.033093279
0.029378487
0.026128229
0.023273998
0.020759723
0.018538941
0.016572729
0.014828204
0.01327739
0.011896367
0.010664688
0.009564218
0.0085766475
0.0076916216
0.076102663
0.063691654
0.052544225
0.045479238
0.039889462
0.035200307
0.031162904
0.027647814
0.024573124
0.021873948
0.019497117
0.017398529
0.015541213
0.013893917
0.012430051
0.011126867
0.0099649213
0.0089271158
0.0079960452
0.0071610872
0.070803344
0.059169718
0.048802384
0.042218075
0.03700902
0.03263883
0.028875786
0.025600244
0.022735953
0.02022242
0.018010018
0.016057526
0.01433035
0.012799231
0.011439255
0.010229075
0.0091503836
0.0081872147
0.0073236647
0.0065491648
0.064759058
0.054036361
0.044564587
0.03853168
0.033756796
0.029749746
0.026298989
0.023295888
0.02067067
0.018367892
0.016342009
0.014555133
0.012975437
0.011575976
0.010333785
0.0092291393
0.0082450061
0.007366557
0.0065798263
0.0058750024
0.058143404
0.048440674
0.039952743
0.034525866
0.030226218
0.026616093
0.023506509
0.020800765
0.018436209
0.016362981
0.014540063
0.01293329
0.011513939
0.010257676
0.0091437487
0.0081542919
0.0072737515
0.006488503
0.0057867687
0.0051601942
0.051145043
0.042543429
0.035097705
0.030313608
0.026516659
0.023325923
0.020576558
0.018184368
0.016094312
0.014262529
0.012652888
0.01123526
0.0099843039
0.0088785566
0.0078997145
0.0070320149
0.006261665
0.0055765126
0.0049672491
0.0044270222
0.043960863
0.036512573
0.030134594
0.026010111
0.022728636
0.019967781
0.017587391
0.015515965
0.013706377
0.012121037
0.010728931
0.0095041656
0.0084249501
0.0074728407
0.00663214
0.005889406
0.0052330642
0.0046533619
0.004144263
0.0036992358
0.0075922654
0.0065781829
0.0057184834
0.004972266
0.0043349303
0.0037891326
0.003319822
0.0029140862
0.0025614273
0.0022533201
0.0019828606
0.001744518
0.0015338533
0.0013472579
0.0011817574
0.0010348687
0.00090449068
0.00078882115
0.00068629596
0.0005955434
0.00051534941
0.00044463087
0.00038241485
0.00032782252
0.00028005668
0.0002383921
0.0002021679
0.00017078153
0.0001436839
0.00012037538
0.00010040239
8.3354327e-05
6.8860855e-05
5.6589218e-05
4.6241793e-05
3.7553545e-05
3.0289705e-05
2.4243239e-05
1.9232784e-05
1.5099774e-05
1.1707757e-05
8.9363083e-06
6.6895755e-06
4.8678015e-06
3.4310952e-06
2.2487877e-06
1.4289167e-06
6.5865891e-07
8.6495704e-07
1.440663e-06
0.0074450792
0.0064645785
0.0056294391
0.0049020883
0.004280245
0.0037469547
0.0032873158
0.0028889026
0.0025417532
0.0022377676
0.0019703964
0.001734401
0.0015255581
0.0013404065
0.0011760717
0.0010301386
0.0009005522
0.00078554278
0.00068356987
0.0005932799
0.00051347324
0.00044307856
0.00038113285
0.00032676567
0.00027918693
0.0002376775
0.00020158169
0.00017030137
0.00014329119
0.00012005469
0.00010014094
8.3141552e-05
6.8688042e-05
5.6449193e-05
4.612865e-05
3.7462427e-05
3.0216619e-05
2.4184904e-05
1.9186503e-05
1.5063335e-05
1.1679345e-05
8.914442e-06
6.6730475e-06
4.85565e-06
3.4225384e-06
2.2432066e-06
1.4259586e-06
6.5689392e-07
8.5986454e-07
1.4130282e-06
0.0071861143
0.0062660335
0.0054753441
0.0047826022
0.0041885816
0.0036773477
0.0032344637
0.0028484748
0.0025104817
0.0022132266
0.0019508271
0.0017185693
0.0015126055
0.0013297249
0.0011672183
0.0010227809
0.00089443181
0.00078045288
0.00067934103
0.00058977123
0.00051056654
0.00044067427
0.00037914703
0.00032512765
0.00027783737
0.00023656669
0.00020066817
0.00016955063
0.00014267465
0.00011954871
9.9726018e-05
8.2801649e-05
6.8409958e-05
5.6222076e-05
4.5943578e-05
3.7312057e-05
3.00949e-05
2.4086844e-05
1.9107978e-05
1.5000937e-05
1.1630257e-05
8.876341e-06
6.6440288e-06
4.8341691e-06
3.4073538e-06
2.2332765e-06
1.4207715e-06
6.5377549e-07
8.4968504e-07
1.3590446e-06
0.0068313034
0.005994842
0.0052672955
0.0046245619
0.0040695512
0.0035882651
0.0031675918
0.0027976955
0.0024713263
0.0021825207
0.0019263436
0.0016987687
0.001496422
0.0013164026
0.0011562027
0.0010136514
0.00088685955
0.00077417349
0.00067413786
0.00058546451
0.00050700599
0.00043773386
0.00037672103
0.00032312753
0.00027618918
0.00023520887
0.00019954964
0.00016862916
0.00014191542
0.00011892311
9.9210558e-05
8.2377083e-05
6.8060514e-05
5.5934825e-05
4.57079e-05
3.7119215e-05
2.9937679e-05
2.3959275e-05
1.9005105e-05
1.4918639e-05
1.1565101e-05
8.8254744e-06
6.605093e-06
4.8052332e-06
3.3868524e-06
2.2198889e-06
1.4138022e-06
6.4968041e-07
8.3441055e-07
1.2814736e-06
0.0063962775
0.0056635004
0.0050166919
0.0044388969
0.0039327803
0.0034873702
0.0030924944
0.0027408697
0.0024274823
0.0021480753
0.0018988658
0.0016765841
0.0014783561
0.0013016078
0.0011440454
0.0010036432
0.00087861477
0.00076738143
0.00066854478
0.00058086123
0.00050321927
0.00043461992
0.0003741605
0.00032102153
0.00027445605
0.00023378134
0.00019837249
0.00016765723
0.00014111186
0.00011825793
9.8659382e-05
8.1920105e-05
6.7681623e-05
5.562089e-05
4.5448177e-05
3.6904876e-05
2.9761429e-05
2.3815053e-05
1.888785e-05
1.4824105e-05
1.1489722e-05
8.7662468e-06
6.5595108e-06
4.7712227e-06
3.3626956e-06
2.2041696e-06
1.4055996e-06
6.4509165e-07
8.1418347e-07
1.1843725e-06
0.0058943516
0.0052833401
0.0047337921
0.0042344787
0.0037852855
0.0033795672
0.0030123569
0.0026801282
0.0023805189
0.0021111727
0.0018695321
0.0016530732
0.001459401
0.0012862663
0.0011315993
0.00099353191
0.00087039409
0.00076069547
0.00066310589
0.00057643563
0.00049961641
0.00043168432
0.0003717654
0.00031906376
0.0002728519
0.00023246318
0.00019728581
0.00016675829
0.00014036565
0.0001176365
9.8140425e-05
8.1485817e-05
6.7317748e-05
5.531596e-05
4.5192899e-05
3.6691657e-05
2.9583994e-05
2.3668169e-05
1.8767104e-05
1.4725748e-05
1.1410552e-05
8.7035223e-06
6.5108992e-06
4.7347718e-06
3.3367138e-06
2.1873511e-06
1.3967388e-06
6.4052457e-07
7.8923375e-07
1.0726655e-06
0.0053385179
0.0048656888
0.0044277215
0.0040166482
0.0036293457
0.0032653075
0.0029268232
0.0026150846
0.0023304071
0.0020721763
0.0018389905
0.0016290528
0.0014404499
0.0012712806
0.0011197315
0.00098412427
0.00086293139
0.00075477189
0.00065840038
0.00057269335
0.0004966348
0.00042930241
0.00036985549
0.00031752483
0.0002716044
0.00023144477
0.00019644794
0.00016606333
0.0001397846
0.00011714708
9.7725594e-05
8.1132506e-05
6.7015895e-05
5.505775e-05
4.4972165e-05
3.6503443e-05
2.9424218e-05
2.353339e-05
1.8654355e-05
1.4632428e-05
1.1334358e-05
8.6423996e-06
6.4630332e-06
4.6986102e-06
3.3107831e-06
2.1706805e-06
1.3877721e-06
6.3647471e-07
7.5987146e-07
9.516795e-07
0.0047449916
0.0044234849
0.0041054791
0.0037846269
0.0034601166
0.003139532
0.002832156
0.0025435255
0.0022762404
0.0020311169
0.0018078335
0.0016053997
0.0014224905
0.001257645
0.0011093836
0.00097627869
0.0008569899
0.00075027753
0.00065500325
0.00057012518
0.00049468991
0.00042782344
0.00036872257
0.00031664721
0.000270914
0.00023089106
0.00019599396
0.00016568247
0.00013945807
0.0001168619
9.7472991e-05
8.0906699e-05
6.6813148e-05
5.487567e-05
4.4809183e-05
3.6358448e-05
2.9296309e-05
2.3421731e-05
1.855808e-05
1.4550615e-05
1.1266026e-05
8.5865255e-06
6.4185807e-06
4.664646e-06
3.2861797e-06
2.1549912e-06
1.3789784e-06
6.3327072e-07
7.2644601e-07
8.2676167e-07
0.0041298862
0.003962255
0.0037596438
0.003521568
0.0032593022
0.00298731
0.0027175205
0.0024577417
0.0022124474
0.0019838941
0.0017729741
0.0015797224
0.0014036206
0.0012438164
0.0010992857
0.00096893957
0.00085168767
0.00074647449
0.00065229798
0.00056821766
0.000493356
0.00042689623
0.00036807849
0.00031619573
0.0002705897
0.00023064767
0.00019579962
0.0001655161
0.00013930647
0.00011671751
9.7332184e-05
8.0768405e-05
6.6677878e-05
5.4744779e-05
4.468435e-05
3.6241332e-05
2.9188331e-05
2.3323967e-05
1.847122e-05
1.4474969e-05
1.1201578e-05
8.5329906e-06
6.3754609e-06
4.6314332e-06
3.2619058e-06
2.1396388e-06
1.3697985e-06
6.3076879e-07
6.8947395e-07
7.0340124e-07
0.003517912
0.0034678442
0.003357319
0.0031969875
0.0030036059
0.0027909876
0.0025692417
0.002346838
0.0021301188
0.0019231538
0.0017283569
0.0015470509
0.001379766
0.0012264579
0.0010867084
0.00095987807
0.00084520832
0.00074188654
0.00064908893
0.00056600633
0.00049185864
0.00042590194
0.00036743132
0.00031578137
0.00027032556
0.00023047526
0.0001956787
0.00016542009
0.00013921886
0.00011662903
9.7238597e-05
8.0668828e-05
6.6573485e-05
5.4637862e-05
4.4577637e-05
3.613754e-05
2.9089874e-05
2.3232805e-05
1.8388794e-05
1.4402207e-05
1.1138954e-05
8.480584e-06
6.3330369e-06
4.5986722e-06
3.2378632e-06
2.1245307e-06
1.3601636e-06
6.2882821e-07
6.5035388e-07
5.8738533e-07
0.0028523192
0.0028699237
0.0028343159
0.0027484152
0.0026278861
0.0024828073
0.0023201321
0.0021474076
0.0019715888
0.0017977949
0.0016295615
0.0014693306
0.0013186688
0.0011784257
0.0010489243
0.00093012735
0.00082175663
0.0007233786
0.00063446587
0.00055444026
0.00048270134
0.00041864495
0.0003616751
0.00031121145
0.00026669411
0.00022758678
0.00019337887
0.00016358704
0.00013775635
0.00011546106
9.6305106e-05
7.992235e-05
6.5976469e-05
5.4160559e-05
4.4196433e-05
3.5833644e-05
2.884829e-05
2.3041528e-05
1.823818e-05
1.4284499e-05
1.104787e-05
8.4111484e-06
6.2810123e-06
4.5612637e-06
3.2114189e-06
2.109165e-06
1.3491038e-06
6.2764256e-07
6.095726e-07
4.8520084e-07
0.0022111787
0.0022664766
0.0022778883
0.0022451107
0.0021805619
0.0020916292
0.0019824464
0.0018588138
0.0017269456
0.0015917422
0.0014568601
0.0013251135
0.0011985755
0.0010786399
0.00096615958
0.00086158673
0.0007650793
0.00067658194
0.0005958899
0.00052269739
0.00045663251
0.00039728225
0.0003442103
0.00029696978
0.00025511246
0.00021819561
0.00018578714
0.00015746963
0.00013284346
0.00011152935
9.3170176e-05
7.7432392e-05
6.4006885e-05
5.2609416e-05
4.298061e-05
3.4885596e-05
2.8113308e-05
2.2475466e-05
1.7805521e-05
1.3956822e-05
1.0802404e-05
8.2300149e-06
6.1495265e-06
4.4691057e-06
3.1476869e-06
2.0710757e-06
1.3221469e-06
6.2124325e-07
5.5734492e-07
3.8789004e-07
0.001659632
0.0017398996
0.0017842204
0.0017922749
0.0017716167
0.001727625
0.0016628509
0.001581414
0.0014884217
0.0013882494
0.0012843722
0.0011796663
0.001076446
0.00097644672
0.0008808998
0.00079063739
0.00070617747
0.00062779238
0.00055556762
0.00048945
0.00042928494
0.00037484489
0.00032585111
0.00028199022
0.00024292693
0.00020831401
0.00017780007
0.00015103584
0.00012767925
0.00010739947
8.9880171e-05
7.4822016e-05
6.1944542e-05
5.0987409e-05
4.1711118e-05
3.3897265e-05
2.7348379e-05
2.1887363e-05
1.7356816e-05
1.3617601e-05
1.0548731e-05
8.0431476e-06
6.0140413e-06
4.374319e-06
3.0819309e-06
2.0320896e-06
1.2931991e-06
6.1568032e-07
5.0043471e-07
2.9634525e-07
0.0011960531
0.0012893731
0.0013539754
0.0013903784
0.0014019141
0.001392137
0.001362717
0.001316339
0.0012567881
0.0011876652
0.0011120358
0.0010325853
0.00095162435
0.00087102488
0.00079223571
0.0007163449
0.00064413851
0.00057615127
0.00051271418
0.00045399721
0.00040004461
0.00035080367
0.00030614784
0.00026589537
0.00022982434
0.00019768475
0.0001692084
0.00014411703
0.00012212897
0.00010296469
8.635126e-05
7.2025958e-05
5.9739081e-05
4.9256039e-05
4.0358808e-05
3.2846812e-05
2.6537317e-05
2.1265367e-05
1.6883492e-05
1.3260714e-05
1.0282542e-05
7.8475298e-06
5.8724983e-06
4.2754021e-06
3.0132209e-06
1.991223e-06
1.2620558e-06
6.1002021e-07
4.4295252e-07
2.1775569e-07
0.00082319723
0.00091729893
0.00099053352
0.0010433942
0.0010761075
0.0010904647
0.0010874561
0.001068648
0.0010365323
0.00099379684
0.00094293789
0.00088626842
0.00082589609
0.00076364332
0.00070101805
0.00063923438
0.00057924332
0.00052176328
0.00046731274
0.00041624313
0.00036876863
0.00032499197
0.00028492651
0.00024851492
0.00021564496
0.00018616262
0.00015988327
0.000136601
0.00011609653
9.8143843e-05
8.251572e-05
6.8988309e-05
5.7344795e-05
4.7378278e-05
3.8893936e-05
3.1710535e-05
2.5661386e-05
2.0594781e-05
1.6374113e-05
1.2877335e-05
9.9970891e-06
7.6380446e-06
5.7210784e-06
4.1694884e-06
2.9395385e-06
1.94686e-06
1.2279344e-06
6.0323454e-07
3.8723777e-07
1.5588968e-07
0.00053764085
0.00062265187
0.00069470608
0.00075362325
0.00079766361
0.00082707133
0.00084212815
0.00084351857
0.00083262508
0.00081121236
0.00078111846
0.00074417001
0.00070213328
0.00065663328
0.00060909864
0.00056074777
0.00051259365
0.0004654547
0.0004199712
0.0003766259
0.00033576556
0.00029762127
0.00026232721
0.00022993755
0.00020044131
0.00017377542
0.00014983615
0.00012848898
0.00010957715
9.2929042e-05
7.8364473e-05
6.5699999e-05
5.4753307e-05
4.5346782e-05
3.7310305e-05
3.0483359e-05
2.4716528e-05
1.9872421e-05
1.5826219e-05
1.2465577e-05
9.69093e-06
7.413572e-06
5.5589147e-06
4.0558433e-06
2.8603441e-06
1.8983786e-06
1.1907001e-06
5.9458013e-07
3.3521743e-07
1.1205296e-07
0.00033012346
0.00039997304
0.00046376067
0.00052057547
0.00056772895
0.00060435367
0.00063004644
0.00064477976
0.00064905427
0.00064380377
0.00063019829
0.00060952904
0.00058314046
0.00055235721
0.00051842004
0.00048244818
0.00044542268
0.00040818037
0.00037141538
0.00033568702
0.00030143147
0.00026897506
0.00023854793
0.00021029748
0.00018430103
0.00016057754
0.00013909835
0.00011979673
0.00010257656
8.7319929e-05
7.3893788e-05
6.2155737e-05
5.1958923e-05
4.3156137e-05
3.5603142e-05
2.9161297e-05
2.3699546e-05
1.9095811e-05
1.5237945e-05
1.2024065e-05
9.3630629e-06
7.1733718e-06
5.3854575e-06
3.9340001e-06
2.7753187e-06
1.8453429e-06
1.1504272e-06
5.833828e-07
2.8838457e-07
8.5221445e-08
0.00018865532
0.00024076018
0.000292069
0.00034120396
0.00038528362
0.00042282937
0.0004529125
0.00047496542
0.00048883605
0.00049478116
0.00049336272
0.00048534779
0.00047163765
0.00045320256
0.00043102146
0.00040603588
0.00037911789
0.00035105048
0.00032251724
0.00029409891
0.00026627543
0.00023943136
0.00021386356
0.00018979
0.00016735912
0.00014665924
0.00012772759
0.00011055896
9.5113682e-05
8.1324965e-05
6.9105545e-05
5.8353561e-05
4.8957707e-05
4.0801656e-05
3.376776e-05
2.7740083e-05
2.2606796e-05
1.8261982e-05
1.4606959e-05
1.1551023e-05
9.0121668e-06
6.9164733e-06
5.2000058e-06
3.8034226e-06
2.684128e-06
1.7873844e-06
1.1072816e-06
5.6911474e-07
2.4762115e-07
7.2300492e-08
0.00010069565
0.00013500932
0.00017209032
0.00021040261
0.00024732494
0.00028118925
0.00031078164
0.00033519189
0.00035383328
0.00036646629
0.00037315636
0.00037420712
0.00037010198
0.00036145091
0.00034893844
0.0003332784
0.00031517785
0.00029530901
0.00027428979
0.00025267186
0.00023093447
0.00020948251
0.00018864804
0.00016869399
0.00014981958
0.00013216654
0.00011582592
0.00010084496
8.7233897e-05
7.4972541e-05
6.4016382e-05
5.430225e-05
4.575341e-05
3.8284058e-05
3.1803214e-05
2.6218006e-05
2.1436356e-05
1.7369118e-05
1.3931709e-05
1.1045214e-05
8.6373108e-06
6.6422079e-06
5.0021071e-06
3.6638104e-06
2.5866434e-06
1.7243949e-06
1.0615989e-06
5.515707e-07
2.1324895e-07
6.8917255e-08
5.4413908e-05
7.2500959e-05
9.5438921e-05
0.00012176537
0.00014933015
0.00017656156
0.00020219473
0.00022517553
0.0002446811
0.00026015642
0.00027130902
0.00027807531
0.00028058258
0.00027911127
0.00027405579
0.00026588579
0.00025511181
0.00024225637
0.00022783012
0.00021231405
0.00019614731
0.00017971949
0.0001633666
0.0001473699
0.00013195714
0.0001173054
0.00010354501
9.0764313e-05
7.9014792e-05
6.8316329e-05
5.8662467e-05
5.0025444e-05
4.2360922e-05
3.5612301e-05
2.9714578e-05
2.45977e-05
2.0189419e-05
1.6417626e-05
1.3212231e-05
1.0506543e-05
8.2384009e-06
6.3505417e-06
4.7918023e-06
3.5152792e-06
2.4830698e-06
1.656618e-06
1.0138965e-06
5.3092597e-07
1.851552e-07
7.0498908e-08
3.9412149e-05
4.3689429e-05
5.3755616e-05
6.8353164e-05
8.5856647e-05
0.00010494503
0.0001244739
0.0001434105
0.00016086198
0.00017611956
0.00018867421
0.00019820823
0.00020457788
0.00020779233
0.00020798866
0.00020540398
0.00020034721
0.00019317305
0.00018425899
0.00017398563
0.00016272098
0.00015080892
0.00013856097
0.00012625117
0.00011411342
0.00010234103
9.1087686e-05
8.0469808e-05
7.0569637e-05
6.1438947e-05
5.3103042e-05
4.5564874e-05
3.88091e-05
3.2805965e-05
2.7514886e-05
2.2887696e-05
1.8871488e-05
1.5411037e-05
1.2450807e-05
9.9365367e-06
7.816515e-06
6.0423019e-06
4.5697778e-06
3.3584563e-06
2.3740021e-06
1.5846734e-06
9.6485054e-07
5.0771909e-07
1.629341e-07
7.3277974e-08
4.7010696e-05
4.0187149e-05
3.9288539e-05
4.330891e-05
5.1111869e-05
6.1681813e-05
7.408885e-05
8.7432869e-05
0.00010087378
0.00011367829
0.00012524595
0.00013511652
0.00014296882
0.0001486144
0.00015198608
0.00015312172
0.00015214502
0.00014924541
0.00014465864
0.00013864877
0.00013149222
0.00012346439
0.00011482914
0.00010583081
9.6688732e-05
8.7593749e-05
7.8706649e-05
7.0158008e-05
6.2049234e-05
5.445449e-05
4.7423237e-05
4.0983175e-05
3.5143398e-05
2.9897588e-05
2.5227136e-05
2.1104061e-05
1.7493692e-05
1.435702e-05
1.1652733e-05
9.3388855e-06
7.3742794e-06
5.7194227e-06
4.3375121e-06
3.194551e-06
2.2604443e-06
1.5095197e-06
9.152338e-07
4.8273968e-07
1.45961e-07
7.488604e-08
7.0237328e-05
5.4948826e-05
4.5217519e-05
4.0280141e-05
3.9410536e-05
4.1889845e-05
4.7031727e-05
5.4124534e-05
6.2456571e-05
7.1360209e-05
8.0240669e-05
8.8591038e-05
9.6001034e-05
0.0001021615
0.00010686379
0.00010999404
0.00011152321
0.0001114945
0.00011000949
0.00010721379
0.00010328336
9.8411719e-05
9.2798879e-05
8.6642114e-05
8.012865e-05
7.3430214e-05
6.6699259e-05
6.0066757e-05
5.3641277e-05
4.7509144e-05
4.1735448e-05
3.6365675e-05
3.1427787e-05
2.6934555e-05
2.2886018e-05
1.9271921e-05
1.6074057e-05
1.3268414e-05
1.082711e-05
8.7200411e-06
6.916291e-06
5.3852247e-06
4.0974463e-06
3.0254344e-06
2.1438318e-06
1.4324092e-06
8.6586721e-07
4.5689823e-07
1.3343264e-07
7.4400464e-08
0.00010365997
8.2263919e-05
6.5784178e-05
5.3663418e-05
4.5493079e-05
4.0808785e-05
3.9153467e-05
4.0015302e-05
4.2844466e-05
4.7090646e-05
5.2229521e-05
5.7779308e-05
6.3313755e-05
6.8472682e-05
7.2968648e-05
7.658905e-05
7.9194093e-05
8.071147e-05
8.1128648e-05
8.0483516e-05
7.8854226e-05
7.6348876e-05
7.309561e-05
6.9233608e-05
6.4905305e-05
6.0249899e-05
5.5398265e-05
5.0469188e-05
4.5566869e-05
4.0779527e-05
3.6178951e-05
3.1820834e-05
2.7745701e-05
2.3980283e-05
2.0539181e-05
1.7426677e-05
1.4638607e-05
1.2164167e-05
9.9876183e-06
8.0898187e-06
6.4495648e-06
5.0447261e-06
3.8531793e-06
2.8537379e-06
2.0260614e-06
1.3548425e-06
8.1758458e-07
4.3109541e-07
1.2439877e-07
7.1941972e-08
0.00014315201
0.00011763764
9.6287749e-05
7.8706129e-05
6.4712846e-05
5.4043261e-05
4.6432461e-05
4.1550856e-05
3.901219e-05
3.8402872e-05
3.9303409e-05
4.1302756e-05
4.4011302e-05
4.7073317e-05
5.0177152e-05
5.3062128e-05
5.5522057e-05
5.7405731e-05
5.8614793e-05
5.9099427e-05
5.885242e-05
5.7902167e-05
5.6305195e-05
5.4138647e-05
5.1493177e-05
4.8466532e-05
4.5157995e-05
4.1663837e-05
3.8073753e-05
3.4468315e-05
3.0917322e-05
2.7478958e-05
2.4199641e-05
2.1114414e-05
1.8247759e-05
1.5614706e-05
1.3222118e-05
1.1070061e-05
9.1531682e-06
7.461946e-06
5.9839721e-06
4.7049703e-06
3.6096972e-06
2.6829922e-06
1.9095656e-06
1.2785732e-06
7.7125517e-07
4.0615691e-07
1.1786149e-07
6.8114785e-08
0.00018564737
0.00015762071
0.00013299963
0.00011150733
9.3116532e-05
7.7708152e-05
6.5164649e-05
5.530634e-05
4.7892346e-05
4.2642052e-05
3.9250752e-05
3.7400086e-05
3.6768574e-05
3.7043051e-05
3.7929383e-05
3.9161264e-05
4.0506747e-05
4.177252e-05
4.2805953e-05
4.3495018e-05
4.3766357e-05
4.3581823e-05
4.2933952e-05
4.1840741e-05
4.0340138e-05
3.8484578e-05
3.633585e-05
3.3960484e-05
3.1425806e-05
2.879672e-05
2.6133252e-05
2.3488807e-05
2.0909106e-05
1.8431687e-05
1.6085906e-05
1.3893318e-05
1.1868332e-05
1.0019065e-05
8.3482938e-06
6.8544492e-06
5.5325847e-06
4.3753117e-06
3.3735919e-06
2.517779e-06
1.7974105e-06
1.2056516e-06
7.278456e-07
3.8282715e-07
1.129298e-07
6.3565752e-08
0.00022891731
0.00019962777
0.00017303754
0.00014895533
0.00012744701
0.00010849219
9.2077683e-05
7.8137163e-05
6.6547401e-05
5.7143192e-05
4.9727746e-05
4.407901e-05
3.9956798e-05
3.7111672e-05
3.5294213e-05
3.4263524e-05
3.3794601e-05
3.3684359e-05
3.3756137e-05
3.386255e-05
3.3886686e-05
3.3741768e-05
3.336951e-05
3.2737429e-05
3.1835418e-05
3.0671862e-05
2.9269579e-05
2.7661847e-05
2.5888678e-05
2.3993508e-05
2.2020382e-05
2.0011693e-05
1.8006462e-05
1.6039163e-05
1.4139016e-05
1.2329696e-05
1.0629386e-05
9.0510888e-06
7.6031213e-06
6.2897393e-06
5.1118176e-06
4.067572e-06
3.1532075e-06
2.3638547e-06
1.6933958e-06
1.1384993e-06
6.8851392e-07
3.6182203e-07
1.089881e-07
5.878949e-08
0.00027138048
0.00024176645
0.00021422733
0.00018863202
0.00016509605
0.00014366082
0.00012438089
0.00010726912
9.2290141e-05
7.9370499e-05
6.8404903e-05
5.9259074e-05
5.1773591e-05
4.5769772e-05
4.1056562e-05
3.7437461e-05
3.4717176e-05
3.2707757e-05
3.1233988e-05
3.0137736e-05
2.9281125e-05
2.8548454e-05
2.7846924e-05
2.7106248e-05
2.6277341e-05
2.5330266e-05
2.4251655e-05
2.3041836e-05
2.1711859e-05
2.0280586e-05
1.8772002e-05
1.7212818e-05
1.5630469e-05
1.4051497e-05
1.2500349e-05
1.0998556e-05
9.5642506e-06
8.2119798e-06
6.9527504e-06
5.7942595e-06
4.7412498e-06
3.7959707e-06
2.9586339e-06
2.228177e-06
1.6020987e-06
1.0799656e-06
6.5468705e-07
3.4389594e-07
1.057902e-07
5.4120568e-08
0.00031194836
0.00028268807
0.00025496999
0.00022870538
0.00020402967
0.0001810189
0.00015976692
0.0001403371
0.00012275473
0.00010701375
9.3080213e-05
8.0892589e-05
7.0362993e-05
6.1380346e-05
5.3814755e-05
4.7522348e-05
4.2350377e-05
3.814241e-05
3.474339e-05
3.2004276e-05
2.9786029e-05
2.79628e-05
2.6424216e-05
2.5076747e-05
2.3844175e-05
2.2667266e-05
2.1502755e-05
2.03218e-05
1.9108073e-05
1.7855638e-05
1.6566768e-05
1.5249821e-05
1.3917276e-05
1.2584005e-05
1.1265817e-05
9.9782962e-06
8.7359344e-06
7.5515379e-06
6.4358781e-06
5.3975519e-06
4.4430095e-06
3.5767332e-06
2.8014695e-06
2.1187753e-06
1.5288173e-06
1.0333269e-06
6.2809109e-07
3.2989385e-07
1.0344557e-07
4.9788657e-08
0.00034990238
0.00032146274
0.00029412269
0.00026782387
0.00024270256
0.00021885074
0.00019638092
0.00017538484
0.00015592594
0.00013804382
0.00012175593
0.00010705632
9.3915095e-05
8.2279481e-05
7.2076039e-05
6.3213463e-05
5.5585905e-05
4.9076714e-05
4.3562462e-05
3.8917006e-05
3.5015378e-05
3.1737313e-05
2.8970268e-05
2.6611821e-05
2.4571391e-05
2.277125e-05
2.114688e-05
1.9646727e-05
1.8231443e-05
1.687275e-05
1.5552032e-05
1.4258771e-05
1.2988945e-05
1.1743466e-05
1.0526742e-05
9.3454076e-06
8.2072512e-06
7.1203632e-06
6.0924914e-06
5.1306e-06
4.2406058e-06
3.4272866e-06
2.6942824e-06
2.0444065e-06
1.4793649e-06
1.0021877e-06
6.1070258e-07
3.2075803e-07
1.0231306e-07
4.5954799e-08
0.00038479781
0.00035747762
0.00033089684
0.00030501973
0.00027997221
0.00025585011
0.00023277063
0.00021083801
0.00019013658
0.00017073392
0.00015268141
0.00013601229
0.0001207401
0.00010685832
9.4340964e-05
8.314377e-05
7.3205864e-05
6.4451993e-05
5.6795256e-05
5.0140125e-05
4.4385642e-05
3.9428607e-05
3.5166621e-05
3.1500825e-05
2.8338253e-05
2.5593688e-05
2.3191005e-05
2.1063969e-05
1.9156538e-05
1.7422703e-05
1.5825955e-05
1.4338454e-05
1.2939998e-05
1.1616871e-05
1.0360662e-05
9.1671089e-06
8.0350331e-06
6.9653924e-06
5.9604854e-06
5.0233115e-06
4.1570901e-06
3.3649451e-06
2.6496954e-06
2.013941e-06
1.4596763e-06
9.9025222e-07
6.0460942e-07
3.1747941e-07
1.0286229e-07
4.2722179e-08
0.00041638792
0.00039035446
0.00036477236
0.0003396236
0.00031501801
0.00029104804
0.00026782685
0.00024546051
0.000224042
0.00020365348
0.00018436631
0.0001662389
0.00014931474
0.00013362121
0.0001191692
0.00010595306
9.3951037e-05
8.312619e-05
7.3427883e-05
6.4793646e-05
5.7151406e-05
5.0421937e-05
4.452143e-05
3.9364041e-05
3.486432e-05
3.0939392e-05
2.7510834e-05
2.4506159e-05
2.1859906e-05
1.9514304e-05
1.7419554e-05
1.5533753e-05
1.3822536e-05
1.2258477e-05
1.0820341e-05
9.4922351e-06
8.2627319e-06
7.1240138e-06
6.0710738e-06
5.1010099e-06
4.2124303e-06
3.4049884e-06
2.6790161e-06
2.0354192e-06
1.4751848e-06
1.0009404e-06
6.1177336e-07
3.2099044e-07
1.0554875e-07
4.0142288e-08
0.00044456525
0.00041988418
0.00039542755
0.00037119222
0.00034726961
0.00032374499
0.00030072263
0.00027830384
0.00025658217
0.00023564495
0.00021557314
0.00019643931
0.0001783056
0.00016122226
0.00014522665
0.00013034246
0.00011657934
0.00010393285
9.2384875e-05
8.1904477e-05
7.2449156e-05
6.39664e-05
5.6395535e-05
4.9669739e-05
4.3718143e-05
3.8467914e-05
3.3846235e-05
2.9782087e-05
2.6207786e-05
2.3060215e-05
2.0281739e-05
1.7820787e-05
1.5632133e-05
1.36769e-05
1.1922327e-05
1.0341361e-05
8.9121118e-06
7.6172397e-06
6.4433027e-06
5.3801241e-06
4.420199e-06
3.5581812e-06
2.7904306e-06
2.1147805e-06
1.5299627e-06
1.0368423e-06
6.3369784e-07
3.3200423e-07
1.1071822e-07
3.8225708e-08
0.00046931113
0.00044597005
0.00042267725
0.0003994427
0.00037633933
0.00035344374
0.00033084904
0.00030864834
0.00028693082
0.0002657829
0.00024528801
0.00022552487
0.0002065656
0.00018847426
0.0001713056
0.000155104
0.0001399025
0.00012572218
0.00011257186
0.00010044811
8.9335683e-05
7.9208229e-05
7.002936e-05
6.1753983e-05
5.4329856e-05
4.7699273e-05
4.1800825e-05
3.6571141e-05
3.1946544e-05
2.7864556e-05
2.4265197e-05
2.1092044e-05
1.8293034e-05
1.5821002e-05
1.3633976e-05
1.1695245e-05
9.9732374e-06
8.4412556e-06
7.0770945e-06
5.8626004e-06
4.7831992e-06
3.8274377e-06
2.9865362e-06
2.2541006e-06
1.6255175e-06
1.0989411e-06
6.709628e-07
3.5078175e-07
1.185175e-07
3.6951488e-08
0.00049066243
0.00046858938
0.00044642967
0.00042420561
0.00040197268
0.00037979865
0.00035776516
0.00033595564
0.00031445246
0.00029333763
0.00027269255
0.00025259673
0.0002331261
0.00021435175
0.00019633865
0.00017914444
0.00016281832
0.00014740006
0.00013291922
0.00011939465
0.00010683427
9.5235079e-05
8.4583566e-05
7.4856341e-05
6.6021068e-05
5.8037624e-05
5.0859438e-05
4.4434952e-05
3.8709135e-05
3.3624994e-05
2.9125009e-05
2.5152445e-05
2.1652507e-05
1.8573281e-05
1.5866481e-05
1.3487966e-05
1.1398058e-05
9.56167e-06
7.9482737e-06
6.5317411e-06
5.2900893e-06
4.2051738e-06
3.2623329e-06
2.4501315e-06
1.7597778e-06
1.1859565e-06
7.2283799e-07
3.7694565e-07
1.2884639e-07
3.6274654e-08
0.00050866103
0.00048773717
0.00046662487
0.00044535844
0.00042397753
0.00040254188
0.00038112236
0.00035979283
0.00033862796
0.00031770373
0.00029709718
0.00027688536
0.00025714407