/*--------------------------------*- C++ -*----------------------------------*\
  =========                 |
  \\      /  F ield         | OpenFOAM: The Open Source CFD Toolbox
   \\    /   O peration     | Website:  https://openfoam.org
    \\  /    A nd           | Version:  6
     \\/     M anipulation  |
\*---------------------------------------------------------------------------*/
FoamFile
{
    version     2.0;
    format      ascii;
    class       volVectorField;
    location    "307";
    object      UMean;
}
// * * * * * * * * * * * * * * * * * * * * * * * * * * * * * * * * * * * * * //

dimensions      [0 1 -1 0 0 0 0];

internalField   nonuniform List<vector> 
9200
(
(0.0014885602 0.0010763247 -6.0387256e-20)
(0.015169494 -0.0031412573 4.7606306e-20)
(0.040945549 -0.0075825981 -3.9439636e-20)
(0.076113309 -0.012027211 -6.2240931e-20)
(0.11881605 -0.016243204 1.9363024e-20)
(0.16781335 -0.019794542 3.3828088e-20)
(0.22202164 -0.022392566 -1.2658772e-20)
(0.28044021 -0.023892565 9.5725799e-21)
(0.3421333 -0.024236545 1.7542123e-20)
(0.40619852 -0.023430086 1.5503606e-21)
(0.47174348 -0.021531033 -2.2441964e-20)
(0.53787698 -0.018638524 2.1582747e-20)
(0.60371215 -0.014882069 -4.2147076e-20)
(0.66837925 -0.010410443 -2.2115517e-20)
(0.7310468 -0.0053799083 6.1796353e-21)
(0.79094805 5.5479493e-05 -2.6347008e-20)
(0.84742635 0.0057669928 2.6463703e-20)
(0.90005786 0.011798241 2.343866e-20)
(0.94846883 0.018279085 -2.7276063e-22)
(0.98999072 0.021868428 -1.617384e-21)
(0.0058328946 -0.0017330434 -1.7398233e-20)
(0.028806626 -0.010159263 4.0966096e-20)
(0.064830999 -0.016623171 2.3999928e-20)
(0.11079525 -0.021522962 -1.1903747e-19)
(0.16453727 -0.025030529 -1.3049899e-20)
(0.22455846 -0.026941444 7.5708856e-20)
(0.28950872 -0.027167529 -3.6640288e-20)
(0.35810856 -0.025750549 -8.7104569e-21)
(0.42913761 -0.02280291 3.5627161e-20)
(0.50141143 -0.018488689 -4.5018149e-20)
(0.57377063 -0.013015793 -3.1695033e-20)
(0.64508819 -0.0066255627 7.521489e-20)
(0.71428984 0.00041900215 3.9985457e-20)
(0.78038314 0.0078448904 -7.1063288e-20)
(0.84249092 0.015379028 1.5287653e-20)
(0.89988359 0.022752941 -3.8404795e-20)
(0.95201912 0.029716691 -1.4505682e-20)
(0.99864142 0.036111704 7.4154255e-20)
(1.0396491 0.041528681 3.1497018e-20)
(1.0732881 0.042856741 -8.4667337e-20)
(0.011580882 -0.0044555196 3.727074e-20)
(0.046164402 -0.01664082 2.3823971e-21)
(0.094213592 -0.024390486 2.2588813e-20)
(0.15226354 -0.028843394 1.0065898e-21)
(0.21785658 -0.030660597 -4.1551259e-20)
(0.28921089 -0.029933497 1.9261363e-20)
(0.36467527 -0.026834763 1.3684678e-20)
(0.44265931 -0.021650386 -5.2014868e-20)
(0.5216385 -0.014716138 5.936651e-20)
(0.6001503 -0.0064002807 1.4992435e-20)
(0.67680489 0.0029040832 -5.6640302e-20)
(0.75031392 0.012792604 -1.9104466e-20)
(0.81952858 0.022866144 9.2445662e-21)
(0.88347942 0.032746979 2.4441706e-20)
(0.94141091 0.042092659 -1.1825602e-20)
(0.99280407 0.050604912 2.9012614e-20)
(1.0373888 0.058043653 -2.1069282e-20)
(1.0751731 0.064274058 -7.2697648e-20)
(1.10632 0.069029596 -2.4184716e-20)
(1.1300051 0.070439938 5.0043702e-20)
(0.01882793 -0.0068425287 2.4750634e-20)
(0.06735935 -0.021891669 5.1951745e-20)
(0.12907778 -0.029847047 2.0312475e-20)
(0.20023914 -0.032711966 1.3492375e-20)
(0.27810857 -0.031723623 1.7876493e-20)
(0.36060447 -0.027338515 -4.915626e-20)
(0.44575836 -0.020054102 -2.6502024e-20)
(0.53166945 -0.010457544 0)
(0.61653829 0.00084632285 1.4975096e-20)
(0.69869193 0.013254767 -6.41546e-21)
(0.77662107 0.026178486 -1.0166177e-19)
(0.84902819 0.039061164 -1.6262143e-20)
(0.91487482 0.051401393 6.7720137e-20)
(0.97341774 0.062771943 4.7936699e-22)
(1.0242276 0.072833817 -1.6306586e-21)
(1.0671854 0.081343054 2.2732438e-20)
(1.1024584 0.088157355 -5.3539455e-21)
(1.1304753 0.0932645 -6.313309e-20)
(1.1518079 0.096641478 -4.7417028e-20)
(1.1664474 0.097340069 7.0868245e-20)
(0.027599988 -0.0086124315 -3.8652315e-21)
(0.092288115 -0.025162529 -4.9117006e-21)
(0.16902878 -0.031921446 5.7588551e-20)
(0.25390635 -0.031868762 1.912521e-20)
(0.34394871 -0.026900167 -3.3027518e-20)
(0.43678406 -0.017906685 1.233304e-20)
(0.53015053 -0.0057701276 2.7260423e-21)
(0.62189299 0.0085767591 3.4933474e-20)
(0.7100349 0.024236393 5.8673048e-21)
(0.79283579 0.040372758 -1.3861676e-20)
(0.86884982 0.056228395 6.267604e-20)
(0.93698015 0.071148799 -5.9987981e-20)
(0.99651579 0.084605231 -1.3685315e-19)
(1.0471421 0.096209481 -5.7685721e-21)
(1.0889225 0.10571838 8.5821599e-20)
(1.122252 0.11302744 0)
(1.1477913 0.11815992 1.0519195e-20)
(1.1663965 0.12126972 -1.5849507e-20)
(1.1790043 0.12254015 -8.9437414e-21)
(1.1861858 0.12158468 2.1397788e-20)
(0.037833269 -0.0094608912 -5.2290483e-21)
(0.12059638 -0.025691777 4.4191173e-21)
(0.21328261 -0.029592675 -8.912608e-21)
(0.31195119 -0.025201627 2.8854192e-20)
(0.41346816 -0.015138335 -3.0247576e-20)
(0.51522602 -0.0007861369 -1.7410624e-20)
(0.61475223 0.016548561 3.7917401e-20)
(0.70976323 0.035573051 4.7653066e-21)
(0.79827573 0.055113131 -2.5599054e-20)
(0.87868898 0.074147224 7.2200211e-20)
(0.94984773 0.091825947 3.6004579e-22)
(1.0110794 0.10749385 -8.3183617e-20)
(1.062195 0.12070226 0)
(1.103452 0.1312071 4.0687542e-20)
(1.1354837 0.13895196 5.647793e-21)
(1.1592053 0.14403864 -7.9581467e-20)
(1.1757103 0.14669323 -2.011017e-20)
(1.1861738 0.14724373 -1.2736547e-20)
(1.1917463 0.14603298 -1.5070209e-20)
(1.1932845 0.14300849 4.1330408e-20)
(0.049361067 -0.0090817084 -1.7297712e-20)
(0.15166251 -0.022764382 -2.829209e-21)
(0.26067501 -0.021980081 3.0582687e-20)
(0.37262023 -0.011857569 3.7602539e-20)
(0.48432379 0.0042279621 -2.0317224e-20)
(0.59305503 0.024372122 -7.1080473e-20)
(0.69628111 0.046841854 -2.900788e-20)
(0.79178391 0.070018057 8.1258327e-20)
(0.87780031 0.092519296 9.0470735e-21)
(0.9531093 0.11323842 -2.5531269e-20)
(1.0170729 0.13135442 1.3928032e-20)
(1.0696286 0.14633746 -4.4695969e-21)
(1.1112325 0.15793665 0)
(1.1427612 0.16614771 2.7940143e-20)
(1.1653888 0.17116533 -8.1336399e-20)
(1.180456 0.17332685 -3.2261983e-20)
(1.1893471 0.17305733 8.2900691e-20)
(1.1933925 0.17082983 -4.5620697e-21)
(1.1937874 0.16708834 3.5864633e-21)
(1.1914434 0.1619661 2.7799081e-20)
(0.061907625 -0.007194598 -3.2513524e-20)
(0.18460328 -0.015783736 -8.2807615e-20)
(0.30970606 -0.0084410741 2.0106107e-21)
(0.43382353 0.0086534685 7.169601e-20)
(0.55391145 0.031391123 6.3791157e-20)
(0.66729003 0.057365433 -7.2840982e-20)
(0.77157852 0.084469522 3.987687e-23)
(0.86486737 0.11085056 8.8136154e-20)
(0.94586417 0.13504486 5.0161004e-20)
(1.0139568 0.15600385 -5.5792268e-20)
(1.0692037 0.17308132 -9.4852192e-20)
(1.1122594 0.1860041 -3.2417084e-21)
(1.1442493 0.19482005 4.3185719e-20)
(1.166615 0.19982681 -6.7228047e-21)
(1.1809536 0.20149159 -1.3067701e-20)
(1.1888724 0.2003726 1.9961924e-20)
(1.191875 0.19705265 4.4783394e-20)
(1.1912859 0.19209469 -4.4634497e-20)
(1.1882085 0.18598125 -1.0431683e-19)
(1.1834651 0.17893563 2.5181464e-20)
(0.075058628 -0.0035758534 -3.5472248e-20)
(0.21823538 -0.0043475266 -1.7492981e-19)
(0.35851607 0.011346216 8.4114492e-20)
(0.49313924 0.036397438 9.4705966e-20)
(0.61940841 0.066051342 5.9056373e-20)
(0.73492387 0.097479314 8.8296327e-21)
(0.83771132 0.12831726 -1.0866056e-19)
(0.92642733 0.15663072 0)
(1.00048 0.18104446 -7.070356e-20)
(1.0600384 0.20073755 -1.5632036e-20)
(1.1059511 0.21538596 5.6033922e-20)
(1.1395962 0.2250826 1.1206621e-20)
(1.1626955 0.23023686 -4.6594411e-20)
(1.1771213 0.23146424 -5.0040937e-20)
(1.1847256 0.22948101 2.4856819e-20)
(1.1872096 0.22501559 4.5807362e-20)
(1.1860403 0.21874468 -5.6720295e-20)
(1.1824154 0.21125717 -1.0947287e-19)
(1.1772664 0.20301933 -3.1039589e-21)
(1.1712585 0.19428755 2.7485319e-20)
(0.088244609 0.0019264688 -3.8044606e-21)
(0.25107981 0.011738022 8.9065026e-20)
(0.40492304 0.037387045 -1.5325727e-20)
(0.54790045 0.071040995 -8.6490741e-20)
(0.67791174 0.1074634 4.6152511e-20)
(0.79309473 0.14355747 4.9824064e-20)
(0.89213955 0.1768879 5.6706044e-21)
(0.97449621 0.20564425 -1.017453e-19)
(1.040439 0.2287392 -2.5638232e-21)
(1.0910013 0.24574935 5.1677177e-20)
(1.127814 0.25679537 6.1135585e-21)
(1.1528914 0.26240293 -2.0185798e-20)
(1.1684051 0.26335542 -7.7231705e-20)
(1.1764838 0.26055488 -6.3257335e-21)
(1.1790606 0.25490696 4.4309437e-20)
(1.1777808 0.24723886 3.7648055e-20)
(1.1739643 0.23825183 2.0047143e-20)
(1.1686158 0.22850343 -5.4088944e-20)
(1.162467 0.21840472 1.2918739e-20)
(1.1560122 0.208216 8.3840455e-20)
(-0.0013154368 0.0014477253 -9.4448436e-22)
(-0.0047571121 0.0031904896 1.9434397e-21)
(-0.010787994 0.0041115768 1.4881852e-21)
(-0.017697472 0.004479346 -1.5783334e-21)
(-0.024549449 0.0044641802 -2.0141986e-21)
(-0.03091506 0.0041812776 2.1468213e-21)
(-0.036521943 0.0037146301 -7.8339251e-21)
(-0.04119409 0.0031250842 -6.7694637e-21)
(-0.044834935 0.0024559911 1.2334887e-20)
(-0.047401996 0.0017379609 -1.0648626e-20)
(-0.048886759 0.00099235922 -2.0159012e-22)
(-0.049301864 0.00023385217 3.9822771e-21)
(-0.048672641 -0.00052766833 -6.6200948e-22)
(-0.047031343 -0.0012855554 2.4391061e-20)
(-0.044413523 -0.0020350268 2.8390165e-22)
(-0.040857519 -0.0027716988 -4.3442663e-20)
(-0.036406824 -0.0034909733 8.0558897e-21)
(-0.031101835 -0.0041907848 2.5168814e-20)
(-0.024952409 -0.0048696515 -4.6160048e-20)
(-0.018020244 -0.005478803 -2.9128663e-20)
(-0.0016742526 0.0042157642 -5.5813987e-21)
(-0.0053951323 0.0092686453 1.012573e-20)
(-0.011194433 0.011924332 -1.039823e-20)
(-0.017526646 0.0129632 5.0689242e-21)
(-0.023553579 0.012882772 6.0630789e-21)
(-0.028897116 0.012021172 8.4647513e-22)
(-0.033320291 0.010625051 -2.5784766e-20)
(-0.036672783 0.0088730096 -2.2212662e-21)
(-0.038875401 0.0068922751 2.2134727e-20)
(-0.039896929 0.0047726533 -5.4975774e-21)
(-0.039735838 0.0025767847 -2.356619e-20)
(-0.038408704 0.00034761304 5.2678436e-21)
(-0.035942602 -0.0018859817 2.4093255e-20)
(-0.032369794 -0.004104697 1.0994047e-20)
(-0.027723947 -0.0062947436 2.3339784e-20)
(-0.022040592 -0.00844372 -2.0948269e-20)
(-0.01536693 -0.010538752 -2.2844766e-20)
(-0.0077534018 -0.012573266 2.2470509e-20)
(0.0008629878 -0.014532641 2.8092836e-20)
(0.010672352 -0.016249303 1.6428248e-20)
(-0.0023230867 0.0066048599 -4.5314198e-21)
(-0.0065063356 0.014454183 -5.1094966e-21)
(-0.011784643 0.018541317 1.3952491e-22)
(-0.016931831 0.020080912 2.8730111e-22)
(-0.021297757 0.019853483 7.2642021e-21)
(-0.024602074 0.018395617 1.1475574e-20)
(-0.026676517 0.016099573 -4.1776699e-21)
(-0.027420708 0.013249515 -2.0551647e-20)
(-0.026789414 0.010048134 7.1231866e-21)
(-0.024773782 0.0066386938 1.3929392e-20)
(-0.02138663 0.0031211936 6.3940067e-21)
(-0.016653324 -0.00043584584 1.9322667e-20)
(-0.010605808 -0.0039865587 1.844851e-21)
(-0.0032782674 -0.0075007601 -3.5827436e-20)
(0.0052966512 -0.010957303 1.4356437e-21)
(0.015086326 -0.01433755 -2.3056732e-20)
(0.026035178 -0.017624049 -2.6011157e-20)
(0.038069811 -0.020808075 4.840477e-20)
(0.051375243 -0.023836418 2.6798322e-20)
(0.066634715 -0.026345106 3.643924e-22)
(-0.0031405692 0.0084059523 -5.5905773e-21)
(-0.007810164 0.018249813 -1.0323199e-20)
(-0.012201892 0.023293695 4.4422569e-21)
(-0.015527229 0.025068798 4.5058092e-21)
(-0.017395912 0.02457051 2.0815584e-21)
(-0.017664623 0.022495637 8.2304151e-21)
(-0.016262736 0.019355155 1.0276789e-20)
(-0.013161832 0.01551945 -1.5247409e-21)
(-0.0083666975 0.011253282 -1.2428619e-20)
(-0.0019027337 0.0067442132 -3.1286966e-20)
(0.0061937799 0.0021233382 1.2988468e-22)
(0.015880821 -0.002519477 4.3357407e-20)
(0.027115049 -0.0071245803 -1.9334565e-20)
(0.039853368 -0.011653167 -1.3014424e-20)
(0.054057057 -0.016079233 3.8245338e-22)
(0.069690049 -0.020381934 3.4114177e-20)
(0.08668274 -0.024546649 -1.5931784e-20)
(0.10492087 -0.028572147 -5.5834039e-20)
(0.12471832 -0.032341601 4.7619806e-20)
(0.14746369 -0.035173772 3.4481505e-20)
(-0.0039640862 0.0094757953 -5.346365e-22)
(-0.0089225807 0.020302708 -1.3040407e-20)
(-0.011947562 0.025697629 -3.700175e-20)
(-0.012762647 0.027369189 -6.5921053e-21)
(-0.011286332 0.026445048 -3.449315e-21)
(-0.0075415755 0.023734719 6.9206994e-21)
(-0.0015786184 0.019834003 -5.1912416e-21)
(0.0065398717 0.015174763 -9.5947728e-21)
(0.016743573 0.010066319 2.3469064e-20)
(0.028959453 0.0047281795 5.3189387e-21)
(0.043116071 -0.00068579043 -2.7170168e-20)
(0.059143591 -0.0060700094 1.1650436e-20)
(0.076974245 -0.01135446 0)
(0.096542902 -0.016494894 1.2752384e-20)
(0.11779017 -0.02146403 -1.0209998e-20)
(0.14066156 -0.026244011 -1.5159899e-20)
(0.16506033 -0.030833363 -1.2017103e-21)
(0.19080918 -0.035259074 -2.4853487e-21)
(0.2183112 -0.039338002 4.7548836e-20)
(0.2498113 -0.041929467 -1.1449007e-20)
(-0.004607451 0.0097462689 -7.7177617e-21)
(-0.009389584 0.020430197 2.5912871e-20)
(-0.010413734 0.025494397 -1.1417812e-20)
(-0.0079476156 0.02668312 -2.9188464e-20)
(-0.0022443201 0.025168859 -2.882721e-20)
(0.006487915 0.021822157 -1.5933002e-20)
(0.018060729 0.017285419 -8.3416902e-22)
(0.032304082 0.012023069 5.9470535e-21)
(0.049067354 0.0063684223 2.0809257e-20)
(0.068215614 0.00055889328 7.7967571e-21)
(0.089624719 -0.0052390047 -7.5596482e-21)
(0.11317886 -0.010911019 -1.9742449e-21)
(0.1387668 -0.016381971 -4.0296382e-20)
(0.1662793 -0.021606067 -1.3354051e-20)
(0.19561083 -0.026558619 1.9963429e-20)
(0.22666074 -0.03123011 -2.2224872e-20)
(0.25928197 -0.035642874 -9.4001394e-21)
(0.29320885 -0.039880951 3.1439118e-20)
(0.3288596 -0.043729894 5.2156802e-20)
(0.36938925 -0.045476334 3.5420894e-21)
(-0.004876605 0.0092212337 1.7149109e-20)
(-0.0087196348 0.018622531 1.4814915e-20)
(-0.0069185534 0.022665898 5.3442303e-20)
(-0.00028348703 0.023000237 2.4777881e-20)
(0.010591456 0.020757887 1.9493043e-22)
(0.025302662 0.016818067 -4.1864689e-20)
(0.043511529 0.011830065 -2.5666855e-20)
(0.064927924 0.006261248 1.1067666e-20)
(0.08930291 0.00044639084 1.5208941e-20)
(0.11641841 -0.0053762302 -1.3730249e-20)
(0.14607614 -0.011039974 -4.6513253e-20)
(0.17808868 -0.016431734 3.1257608e-20)
(0.21227193 -0.021478938 2.0923147e-20)
(0.24843942 -0.026140689 -2.8935105e-20)
(0.2864022 -0.030401002 1.2299169e-20)
(0.32597258 -0.03426552 2.5288351e-20)
(0.36691728 -0.037790448 8.5124847e-21)
(0.40885514 -0.041148251 -1.2541833e-20)
(0.45212948 -0.044171576 -1.4423831e-20)
(0.50073551 -0.044553832 6.9449136e-21)
(-0.0045804348 0.0079649576 1.1474294e-20)
(-0.0064103512 0.015026561 -2.4679504e-20)
(-0.00074149941 0.017424889 8.530041e-21)
(0.011096614 0.016599236 3.527504e-20)
(0.02817557 0.013562729 5.4367031e-20)
(0.04989305 0.0091536412 2.1281628e-20)
(0.075750727 0.0039900366 -6.141114e-21)
(0.10531987 -0.0014897086 -1.2901294e-20)
(0.13823246 -0.0069735198 -6.5613855e-21)
(0.17416148 -0.012241482 3.6021162e-20)
(0.21280245 -0.017142929 -4.8655425e-21)
(0.25385937 -0.021579586 -1.7578653e-20)
(0.29703368 -0.025493681 -2.0582079e-20)
(0.34201638 -0.028860542 -4.9788256e-20)
(0.38848694 -0.031683901 2.4263666e-20)
(0.43612118 -0.033995829 -1.471952e-20)
(0.4845586 -0.035899745 2.7240272e-20)
(0.53328711 -0.037692103 2.2025586e-20)
(0.5825058 -0.039376619 -8.8058022e-20)
(0.63685753 -0.03821526 1.6615298e-22)
(-0.0035378021 0.0060884469 2.2497249e-20)
(-0.0019740223 0.0099237231 -2.731784e-20)
(0.0088310417 0.01019822 -4.6572702e-20)
(0.027060288 0.0080415895 -2.8365577e-20)
(0.05146568 0.004276477 -2.1357348e-21)
(0.081241386 -0.00034724256 1.3702371e-20)
(0.11571568 -0.0052813127 -2.9738276e-21)
(0.15430198 -0.010147743 1.89444e-20)
(0.19648452 -0.014684153 9.2639249e-21)
(0.24179129 -0.018712246 -1.191786e-20)
(0.28976925 -0.022118103 9.4067823e-21)
(0.33996647 -0.024837398 -2.5066122e-20)
(0.3919192 -0.026844798 8.6318548e-21)
(0.44514338 -0.028147386 1.7576715e-20)
(0.49913347 -0.028780716 -2.8862143e-21)
(0.55337239 -0.028810796 1.8231989e-21)
(0.60731551 -0.028388843 -4.9112113e-22)
(0.66029609 -0.027919255 2.0576355e-20)
(0.71233308 -0.027601815 4.0070902e-21)
(0.76848001 -0.024778168 -1.6197154e-21)
(-0.001578338 0.003738316 2.446391e-20)
(0.0050426761 0.0037160087 5.9400221e-20)
(0.022452321 0.0016250241 -5.0762258e-20)
(0.048380196 -0.001808925 -1.0326185e-20)
(0.081271679 -0.0060257093 2.1086561e-20)
(0.12011299 -0.010410528 2.2275925e-21)
(0.1640428 -0.014524674 -3.1017683e-20)
(0.21228914 -0.018086888 7.2851981e-21)
(0.2641516 -0.02091742 7.4056396e-21)
(0.31896936 -0.022910413 -2.7422943e-20)
(0.37609379 -0.024018291 1.348251e-21)
(0.43487109 -0.024239068 -3.893498e-20)
(0.49463263 -0.023606012 -3.8078543e-20)
(0.55469158 -0.022179349 6.8840043e-20)
(0.61434546 -0.020038992 5.8266069e-21)
(0.67288285 -0.017283681 -1.5883088e-20)
(0.7295682 -0.014072008 2.0210096e-20)
(0.78356776 -0.010708951 -9.5132874e-22)
(0.83441887 -0.0072173084 2.0771236e-20)
(0.88582793 -0.0020657912 -2.0775558e-20)
(-0.0097736562 -0.0057614346 6.1230022e-20)
(-9.1350964e-05 -0.0062861929 1.6326283e-20)
(0.011005032 -0.0067076947 -3.6373021e-20)
(0.023160877 -0.0069562591 1.749975e-20)
(0.036101642 -0.0071149622 0)
(0.049763269 -0.0072124278 0)
(0.06408293 -0.0072515581 -2.3567809e-20)
(0.078977368 -0.007240327 -1.6838955e-20)
(0.094372296 -0.0071884344 1.959225e-20)
(0.11020473 -0.0071029572 1.8520135e-20)
(0.12641662 -0.0069893015 1.0439274e-21)
(0.14295327 -0.0068522226 -1.0387403e-20)
(0.15976373 -0.0066958617 8.497659e-21)
(0.17680037 -0.0065237287 1.8250272e-20)
(0.1940183 -0.0063388277 -5.3520447e-21)
(0.21137503 -0.0061437659 -1.0108825e-20)
(0.22883021 -0.005940819 -4.2748777e-21)
(0.24634549 -0.0057319835 -4.3182384e-21)
(0.26388438 -0.0055190225 7.0760688e-22)
(0.28141223 -0.0053035023 1.2166927e-21)
(0.29889613 -0.0050868197 2.5753891e-21)
(0.316305 -0.004870223 6.5313502e-21)
(0.33360956 -0.0046548277 1.7309854e-22)
(0.35078238 -0.0044416286 -3.3769046e-21)
(0.36779796 -0.0042315088 1.3670658e-22)
(0.38463273 -0.0040252462 -5.6112996e-22)
(0.40126508 -0.0038235197 1.2052348e-21)
(0.4176754 -0.0036269138 9.929774e-22)
(0.43384611 -0.0034359238 -1.2933049e-21)
(0.4497616 -0.0032509601 -1.0636577e-22)
(0.46540825 -0.0030723536 -2.070763e-23)
(0.48077438 -0.0029003608 -3.3555936e-22)
(0.4958502 -0.0027351696 -4.0891483e-22)
(0.51062778 -0.0025769054 8.0715062e-23)
(0.52510097 -0.0024256376 -1.3030714e-22)
(0.53926534 -0.0022813862 -2.0446633e-22)
(0.55311812 -0.0021441289 2.3304872e-22)
(0.56665821 -0.0020138087 2.6547369e-22)
(0.57988599 -0.0018903428 -2.586123e-23)
(0.59280379 -0.0017736272 -1.6114414e-22)
(0.60541464 -0.0016635653 1.9954177e-23)
(0.61772636 -0.0015600236 -2.9124153e-23)
(0.62973982 -0.0014630454 8.316154e-23)
(0.64148623 -0.0013722692 -5.5888774e-24)
(0.65291763 -0.0012889596 -1.2853722e-22)
(0.66423705 -0.0012099222 2.4225421e-24)
(0.6749402 -0.0011472647 4.5167017e-24)
(0.68661748 -0.0010685904 -4.8054933e-24)
(0.69492463 -0.0010826583 2.6867932e-23)
(0.71212948 -0.00091083049 3.6862518e-22)
(0.020150005 -0.016961427 -1.3624169e-20)
(0.028887851 -0.018553753 -6.5863367e-20)
(0.039518068 -0.01979213 -3.2001402e-20)
(0.051176086 -0.020500731 3.9968496e-20)
(0.063473191 -0.020956635 1.5187494e-20)
(0.076425134 -0.021242892 -1.896622e-20)
(0.090000887 -0.021360235 5.0387334e-21)
(0.10412015 -0.021330628 2.6003119e-20)
(0.11871607 -0.021182956 -1.0158713e-22)
(0.13373516 -0.020937533 -7.8795652e-21)
(0.14912644 -0.020609601 -1.294025e-20)
(0.16484053 -0.020212776 -8.7686278e-21)
(0.18083098 -0.019759015 1.7880163e-20)
(0.19705395 -0.019258458 9.3955103e-21)
(0.21346763 -0.018719807 -1.6309989e-20)
(0.230032 -0.018150649 -6.0166447e-21)
(0.24670874 -0.017557635 3.1379225e-21)
(0.26346115 -0.016946624 8.2007657e-21)
(0.28025409 -0.016322811 6.9456555e-21)
(0.29705397 -0.015690826 -7.0395829e-21)
(0.31382878 -0.015054811 -3.3132875e-21)
(0.33054809 -0.014418482 1.5048492e-21)
(0.34718318 -0.013785167 5.7802011e-22)
(0.36370703 -0.013157841 1.2338366e-21)
(0.38009443 -0.012539151 2.2159462e-22)
(0.39632199 -0.011931434 -3.588922e-22)
(0.41236821 -0.011336735 -7.4056404e-22)
(0.42821352 -0.010756818 1.0394825e-21)
(0.44384023 -0.010193182 8.5573234e-22)
(0.45923264 -0.0096470743 -2.3532547e-22)
(0.47437692 -0.0091195043 5.8264911e-22)
(0.48926114 -0.0086112599 -2.2788113e-22)
(0.50387521 -0.0081229243 -3.9959309e-22)
(0.51821083 -0.0076548938 -6.1770536e-22)
(0.53226147 -0.0072073971 4.1711064e-22)
(0.54602225 -0.0067805151 -8.28424e-23)
(0.55948995 -0.0063742024 2.0311196e-22)
(0.57266296 -0.0059883085 -4.586929e-22)
(0.58554116 -0.0056226068 4.2513923e-22)
(0.59812633 -0.0052768053 6.2336006e-23)
(0.61042097 -0.0049506345 -7.1254274e-23)
(0.62243231 -0.0046437132 2.0317339e-22)
(0.63416071 -0.0043561891 2.7187004e-22)
(0.64563658 -0.0040869973 2.0394136e-22)
(0.65681207 -0.0038399327 2.139676e-22)
(0.66788732 -0.0036054718 -2.0014584e-23)
(0.6783642 -0.0034197391 1.0891932e-22)
(0.68981064 -0.0031862 9.6513981e-23)
(0.69794571 -0.0032285187 -2.0150298e-22)
(0.71484321 -0.0027184123 -1.754009e-23)
(0.078368474 -0.027145056 1.0048337e-20)
(0.085231851 -0.029814386 3.7004804e-21)
(0.094825679 -0.031814166 -1.3332377e-20)
(0.10545253 -0.032902925 -1.5256787e-21)
(0.11644105 -0.033616143 1.5762204e-20)
(0.12796298 -0.034086385 -1.5390513e-20)
(0.14005755 -0.034292969 -3.0982742e-20)
(0.15264643 -0.034266044 1.5111979e-20)
(0.16567392 -0.034052962 1.8829478e-20)
(0.17910415 -0.033685171 -1.1961366e-20)
(0.19289897 -0.033185252 1.0373461e-21)
(0.20701819 -0.032573947 8.4934057e-21)
(0.22142312 -0.031869828 -1.5613965e-20)
(0.23607648 -0.031088709 3.5332987e-21)
(0.25094171 -0.030244225 7.7201735e-21)
(0.26598301 -0.029348367 -3.6310784e-22)
(0.28116546 -0.028411742 2.2349462e-23)
(0.2964551 -0.027443766 -7.5729482e-21)
(0.311819 -0.026452849 4.267539e-21)
(0.32722532 -0.025446539 8.6076662e-21)
(0.34264343 -0.024431632 -3.8784324e-21)
(0.35804401 -0.023414255 -2.1830259e-21)
(0.37339916 -0.022399924 9.2081784e-22)
(0.38868247 -0.021393592 -1.7577171e-21)
(0.40386914 -0.020399682 1.3219664e-21)
(0.41893604 -0.019422119 7.001531e-22)
(0.43386177 -0.018464346 1.7217497e-21)
(0.44862668 -0.017529349 -2.1096608e-21)
(0.46321295 -0.016619678 2.3957096e-21)
(0.47760454 -0.015737467 5.7974735e-22)
(0.49178724 -0.014884459 5.5403587e-22)
(0.5057486 -0.014062029 3.0696866e-22)
(0.51947795 -0.013271212 9.7590497e-22)
(0.5329663 -0.012512736 -1.5048707e-21)
(0.54620637 -0.011787047 4.1570195e-22)
(0.55919246 -0.011094346 1.8896319e-22)
(0.57192047 -0.010434627 -6.9659656e-23)
(0.58438788 -0.0098077032 3.5610915e-23)
(0.59659361 -0.009213263 -3.9272974e-22)
(0.60853842 -0.0086508841 2.1193947e-22)
(0.62022381 -0.0081201796 -3.1262386e-23)
(0.63165595 -0.0076205744 4.992478e-22)
(0.64283424 -0.0071523692 -2.3276311e-22)
(0.65378761 -0.0067138508 4.0274412e-23)
(0.66446839 -0.0063113399 6.5780372e-23)
(0.67507127 -0.0059291685 -8.7811396e-23)
(0.68510988 -0.0056268521 -1.4676317e-22)
(0.69610908 -0.0052457756 4.7770702e-22)
(0.70391015 -0.0053164661 1.7899503e-22)
(0.72021167 -0.0044842192 -8.4623487e-22)
(0.16210171 -0.035589169 1.7309473e-21)
(0.16618092 -0.03931848 -1.1743962e-20)
(0.17402298 -0.041998126 6.6073704e-21)
(0.18301788 -0.043373693 -1.3869978e-20)
(0.19200954 -0.04430743 -2.0515034e-21)
(0.20137278 -0.044971557 9.7516203e-21)
(0.21126519 -0.045300863 -1.059822e-20)
(0.22160705 -0.045324319 1.24365e-21)
(0.23235069 -0.045105261 1.3242044e-20)
(0.24348307 -0.044683667 3.7102114e-21)
(0.25498275 -0.044086264 -6.3310995e-21)
(0.26682035 -0.043338295 -3.1229492e-21)
(0.27896618 -0.042463145 -5.6222225e-21)
(0.29139062 -0.041481008 -6.6958544e-21)
(0.30406321 -0.040409446 2.9059929e-21)
(0.31695289 -0.039264093 4.3881111e-22)
(0.33002854 -0.038058971 1.5157345e-21)
(0.34325919 -0.036806682 -3.3828763e-21)
(0.35661424 -0.035518608 -4.4889037e-21)
(0.37006367 -0.034205062 2.4772201e-21)
(0.38357827 -0.032875413 3.4354009e-21)
(0.39712977 -0.031538166 -1.7632023e-21)
(0.41069101 -0.030201036 1.657997e-21)
(0.42423613 -0.028870986 -4.7851911e-22)
(0.4377406 -0.027554273 -4.1983181e-21)
(0.4511814 -0.026256472 -3.0530033e-21)
(0.46453705 -0.024982505 -2.6567509e-22)
(0.47778769 -0.023736662 3.4345507e-22)
(0.4909151 -0.022522632 -2.2068442e-21)
(0.50390274 -0.021343529 -1.010739e-21)
(0.51673574 -0.02020192 2.1921233e-22)
(0.52940091 -0.019099863 -1.3562559e-21)
(0.5418867 -0.018038943 -4.4558621e-23)
(0.55418317 -0.01702031 -4.871058e-22)
(0.56628196 -0.016044727 -4.4796354e-22)
(0.57817628 -0.015112611 -6.4479964e-22)
(0.58986081 -0.014224084 -9.990034e-22)
(0.60133177 -0.013379019 -2.3534483e-23)
(0.61258679 -0.012577109 -3.6093131e-24)
(0.62362529 -0.011817889 -5.9072959e-22)
(0.63444739 -0.01110094 -3.7151973e-23)
(0.64505781 -0.010425577 -3.9861222e-22)
(0.6554547 -0.0097923235 -5.7212997e-22)
(0.66566494 -0.0091989098 4.6274802e-22)
(0.67564118 -0.0086541528 1.3995073e-23)
(0.68557044 -0.0081365782 2.273276e-22)
(0.69498326 -0.0077279623 -1.6640134e-22)
(0.70534261 -0.0072112324 -3.2517362e-22)
(0.71266593 -0.00731016 -2.3714677e-23)
(0.72811187 -0.0061820527 4.7932694e-22)
(0.26746298 -0.041506938 -2.2396813e-20)
(0.26785057 -0.046268875 4.9322455e-20)
(0.2730689 -0.049535122 1.0630106e-20)
(0.27973134 -0.05112964 -1.6441881e-20)
(0.28602327 -0.052282992 -2.3712749e-21)
(0.29250942 -0.053184472 2.4371591e-21)
(0.29951352 -0.05370755 -1.9830694e-21)
(0.30695581 -0.053869583 -4.822434e-21)
(0.31478523 -0.05374291 -4.1272054e-21)
(0.32301039 -0.053372804 -1.2515433e-20)
(0.33162812 -0.05278773 1.8649968e-20)
(0.34061909 -0.052014741 6.8865521e-21)
(0.34996114 -0.051079883 -1.7050609e-20)
(0.35963128 -0.050006354 1.0053747e-20)
(0.3696043 -0.048814713 8.0671062e-21)
(0.37985308 -0.047523549 -5.0465979e-22)
(0.39034944 -0.046149825 -2.883709e-21)
(0.40106467 -0.044709052 -4.1617222e-21)
(0.41196984 -0.043215431 -1.5459495e-21)
(0.42303616 -0.041681989 -1.3669748e-21)
(0.43423524 -0.04012068 -3.2841476e-21)
(0.44553934 -0.038542454 0)
(0.45692161 -0.036957314 -1.4579328e-21)
(0.46835624 -0.035374353 3.9747384e-21)
(0.47981862 -0.033801789 5.6221082e-21)
(0.49128545 -0.032246984 -9.1663396e-22)
(0.50273484 -0.030716478 -3.2038007e-21)
(0.51414637 -0.029216009 3.3563688e-21)
(0.52550113 -0.027750544 9.4052021e-23)
(0.53678181 -0.026324315 3.6943952e-21)
(0.54797261 -0.024940853 -5.1407665e-22)
(0.55905932 -0.023603033 1.7812594e-21)
(0.57002929 -0.022313118 -8.8135543e-22)
(0.58087138 -0.021072815 3.8347578e-22)
(0.59157594 -0.019883327 -5.1333029e-22)
(0.60213483 -0.018745409 5.7923157e-22)
(0.61254132 -0.017659434 5.1780304e-22)
(0.62279016 -0.016625451 4.3478273e-22)
(0.63287744 -0.015643269 -1.0758942e-21)
(0.64280104 -0.014712493 7.6899948e-22)
(0.65255951 -0.013832777 -4.0691731e-22)
(0.66215586 -0.013003426 -1.2996086e-21)
(0.67158684 -0.012225272 1.6588332e-21)
(0.68087687 -0.011495605 -5.6833487e-23)
(0.6899792 -0.010825682 -1.8818523e-22)
(0.69907125 -0.010188684 -7.2484557e-24)
(0.70770514 -0.0096870818 -1.7781032e-22)
(0.71726553 -0.0090502983 -5.6073008e-22)
(0.72399305 -0.0091770438 8.093615e-22)
(0.73836488 -0.0077877704 -4.8610884e-23)
(0.38953502 -0.043950285 -1.8778949e-20)
(0.38536448 -0.049772578 1.3135763e-20)
(0.38698599 -0.053574441 3.6055759e-21)
(0.39052965 -0.055410742 -7.987749e-21)
(0.39344795 -0.056863223 1.2544136e-20)
(0.39640189 -0.058100217 8.09291e-21)
(0.39990694 -0.05893827 -1.2824408e-20)
(0.40390015 -0.059379777 -6.2635446e-21)
(0.40831153 -0.059493215 1.3068258e-20)
(0.41315926 -0.059322966 -1.6199909e-20)
(0.41845584 -0.058898031 -1.4381136e-20)
(0.42418993 -0.05824582 1.4962004e-20)
(0.43034333 -0.057393216 6.9613368e-21)
(0.43689644 -0.056365264 -4.9226113e-21)
(0.44382687 -0.05518495 -1.4885352e-21)
(0.45110945 -0.053873505 -3.7285296e-21)
(0.4587172 -0.052450679 4.9569892e-21)
(0.46662214 -0.050934867 3.6823756e-21)
(0.4747957 -0.049343188 -3.1592136e-21)
(0.48320916 -0.047691539 3.1277909e-21)
(0.49183396 -0.045994659 2.9057904e-21)
(0.50064203 -0.04426617 -3.3331006e-21)
(0.50960604 -0.042518603 3.680967e-22)
(0.51869956 -0.040763418 -3.2075467e-21)
(0.52789726 -0.03901103 7.9093737e-21)
(0.53717504 -0.037270824 6.4135666e-21)
(0.5465101 -0.035551177 9.8120733e-22)
(0.55588105 -0.033859487 -1.8205501e-21)
(0.56526794 -0.032202203 4.1210351e-21)
(0.5746523 -0.030584866 7.8334224e-21)
(0.58401716 -0.029012153 2.3746695e-21)
(0.59334703 -0.027487929 3.6057397e-21)
(0.60262793 -0.026015303 2.1035501e-21)
(0.61184732 -0.024596693 8.2566554e-22)
(0.62099413 -0.023233894 -2.5078376e-22)
(0.6300587 -0.021928143 2.9922794e-21)
(0.63903278 -0.0206802 6.7572194e-22)
(0.64790953 -0.019490423 3.1267809e-22)
(0.65668345 -0.018358867 5.6816526e-23)
(0.66535075 -0.017285324 1.1511112e-21)
(0.67390835 -0.016269634 4.3672814e-23)
(0.68235751 -0.015311206 5.3919175e-22)
(0.69069348 -0.01441127 -1.2649445e-22)
(0.69893807 -0.0135668 -3.646902e-22)
(0.70704543 -0.012791413 -1.8617472e-22)
(0.71518188 -0.01205349 -5.1161831e-22)
(0.7229251 -0.011474294 2.1503987e-22)
(0.731568 -0.010735688 -1.51625e-22)
(0.73761302 -0.010889566 -4.624201e-22)
(0.75074205 -0.0092799227 2.7163803e-22)
(0.52225313 -0.041995851 3.5014923e-21)
(0.51287335 -0.048915722 -1.9236029e-20)
(0.50995558 -0.053257605 -2.5073678e-21)
(0.50960097 -0.055520456 5.6420589e-21)
(0.50861171 -0.05749293 3.4380478e-21)
(0.50755417 -0.059251846 4.1549619e-22)
(0.50710485 -0.060587885 6.9036067e-21)
(0.50726063 -0.061504341 8.0063228e-21)
(0.50792961 -0.062055545 1.0039052e-20)
(0.50911687 -0.062276176 -1.1690214e-20)
(0.51084027 -0.062194154 -2.2555038e-20)
(0.51309344 -0.06183735 -4.3493492e-21)
(0.51585843 -0.06123305 1.656772e-20)
(0.51911478 -0.06040774 1.3239161e-20)
(0.52283963 -0.059386873 -5.7914022e-21)
(0.52700726 -0.058194613 1.0371584e-21)
(0.53158987 -0.05685385 -4.0423661e-21)
(0.53655844 -0.05538626 2.8585563e-21)
(0.54188329 -0.053812293 -2.9281803e-22)
(0.5475345 -0.052151149 -1.9403707e-21)
(0.55348228 -0.050420777 8.3144097e-21)
(0.55969727 -0.048637871 -4.3594067e-22)
(0.56615081 -0.046817877 5.5094997e-22)
(0.57281513 -0.044974991 -5.1555243e-22)
(0.57966354 -0.043122164 -4.4548415e-21)
(0.58667053 -0.041271119 4.3504271e-21)
(0.59381192 -0.039432365 1.8605625e-21)
(0.60106488 -0.037615234 -3.4068921e-21)