/*--------------------------------*- C++ -*----------------------------------*\
  =========                 |
  \\      /  F ield         | OpenFOAM: The Open Source CFD Toolbox
   \\    /   O peration     | Website:  https://openfoam.org
    \\  /    A nd           | Version:  6
     \\/     M anipulation  |
\*---------------------------------------------------------------------------*/
FoamFile
{
    version     2.0;
    format      ascii;
    class       surfaceScalarField;
    location    "133";
    object      phi_0;
}
// * * * * * * * * * * * * * * * * * * * * * * * * * * * * * * * * * * * * * //

dimensions      [0 3 -1 0 0 0 0];

internalField   nonuniform List<scalar> 
18180
(
0.00031873202
-0.00016316562
-0.0001555664
0.0013092221
-0.0013669388
0.00037644872
0.0030329128
-0.0033336663
0.0016099756
0.0055498191
-0.005976035
0.0034591287
0.0089182693
-0.0092391907
0.0058707405
0.013192918
-0.013079681
0.0088050326
0.018422087
-0.017460039
0.01223087
0.024644796
-0.022346048
0.01612334
0.031887613
-0.02770362
0.020460803
0.04016158
-0.03349617
0.025222203
0.049459525
-0.039682863
0.030384918
0.05975414
-0.046217696
0.035923081
0.07099721
-0.053049399
0.041806329
0.083120471
-0.060122196
0.047998934
0.096038695
-0.067377508
0.054459285
0.10965552
-0.074756725
0.061139897
0.12387149
-0.082204868
0.067988905
0.13859923
-0.089674897
0.074947154
0.15383732
-0.097149682
0.081911587
-0.10462685
0.088679795
0.16978438
0.00039750021
-0.00056066583
0.0016096071
-0.0025790457
0.003689346
-0.0054134052
0.0066874936
-0.0089741825
0.01065073
-0.013202428
0.015617983
-0.018046933
0.021616412
-0.023458468
0.028657456
-0.029387092
0.036733192
-0.035779356
0.045813442
-0.04257642
0.055844037
-0.049713458
0.0667466
-0.057120259
0.0784201
-0.064722899
0.090744252
-0.072446347
0.10358456
-0.080217818
0.11679842
-0.087970583
0.13024129
-0.095647734
0.14377347
-0.10320708
0.15725903
-0.11063525
-0.11786273
0.17049491
0.00048062693
-0.0010412928
0.0019187119
-0.0040171306
0.0043525091
-0.0078472024
0.0078166167
-0.01243829
0.012337747
-0.017723558
0.017929324
-0.02363851
0.024586405
-0.030115549
0.032281407
-0.037082095
0.040961081
-0.04445903
0.050545203
-0.052160543
0.060927388
-0.060095643
0.071978158
-0.068171029
0.083550173
-0.076294914
0.095485198
-0.084381372
0.10762208
-0.092354695
0.11980463
-0.10015314
0.13188835
-0.10773145
0.14374379
-0.11506252
0.15524895
-0.12214041
-0.12891506
0.16630128
0.0005661735
-0.0016074663
0.002227957
-0.0056789141
0.0050006432
-0.010619889
0.008894066
-0.016331713
0.013905342
-0.022734834
0.020011999
-0.029745167
0.02716664
-0.037270191
0.035293605
-0.04520906
0.04428808
-0.053453504
0.054018031
-0.061890493
0.064328997
-0.070406609
0.075051423
-0.078893455
0.08600982
-0.087253311
0.097032786
-0.095404338
0.10796273
-0.10328464
0.11866419
-0.1108546
0.12902984
-0.1180971
0.1389831
-0.12501578
0.14847498
-0.13163229
-0.13794589
0.15750582
0.00065089032
-0.0022583566
0.0025243569
-0.0075523807
0.0056036673
-0.013699199
0.0098645208
-0.020592567
0.015264695
-0.028135007
0.021736523
-0.036216996
0.029182625
-0.044716293
0.037475067
-0.053501501
0.046458199
-0.062436637
0.055955052
-0.071387346
0.065776655
-0.080228212
0.075733234
-0.088850034
0.085645925
-0.097166003
0.095357578
-0.10511599
0.10474136
-0.11266842
0.11370629
-0.11981953
0.12219941
-0.12659022
0.13020455
-0.13302092
0.13773791
-0.13916566
-0.1450682
0.14486022
0.00073064005
-0.0029889966
0.0027921017
-0.0096138423
0.0061266069
-0.017033704
0.010666766
-0.025132726
0.016322729
-0.03379097
0.022975348
-0.042869614
0.030474557
-0.052215502
0.038642546
-0.06166949
0.047281348
-0.07107544
0.056183898
-0.080289895
0.065147045
-0.089191359
0.073984742
-0.097687731
0.082539599
-0.10572086
0.09069138
-0.11326777
0.098361488
-0.12033853
0.10551328
-0.12697133
0.11214871
-0.13322565
0.11830226
-0.13917446
0.12403342
-0.14489682
-0.15046386
0.12942908
0.00080073544
-0.0037897321
0.0030139312
-0.011827038
0.0065329255
-0.020552698
0.011240102
-0.029839903
0.016992768
-0.039543636
0.023618636
-0.049495482
0.030918322
-0.059515188
0.038673435
-0.069424603
0.046658892
-0.079060896
0.054657509
-0.088288513
0.062474554
-0.097008404
0.069950024
-0.1051632
0.076966996
-0.11273783
0.08345509
-0.11975587
0.089389052
-0.12627249
0.094783203
-0.13236548
0.099683138
-0.13812559
0.10415627
-0.1436476
0.10828282
-0.14902337
-0.15433407
0.11215303
0.00085606282
-0.0046457949
0.0031720749
-0.01414305
0.0067872543
-0.024167878
0.011529847
-0.034582496
0.017203494
-0.045217284
0.023586622
-0.055878609
0.030439957
-0.066368523
0.037519411
-0.076504058
0.044591875
-0.08613336
0.051451063
-0.095147701
0.057930667
-0.10348801
0.063912777
-0.11114531
0.069330605
-0.11815566
0.074165609
-0.12459087
0.078440123
-0.130547
0.082207153
-0.13613251
0.085539268
-0.1414577
0.088518276
-0.14662661
0.091227022
-0.15173212
-0.1568525
0.093745456
0.00089026618
-0.0055360611
0.003248296
-0.01650108
0.0068576469
-0.027777229
0.011492502
-0.03921735
0.016906858
-0.05063164
0.02283895
-0.061810702
0.029023725
-0.072553298
0.035209299
-0.082689631
0.041173962
-0.092098023
0.046740407
-0.10071415
0.051784635
-0.10853224
0.05623835
-0.11559903
0.06008504
-0.12200235
0.063351104
-0.12785693
0.066094025
-0.13328992
0.068389821
-0.13842831
0.070321642
-0.14338952
0.071970909
-0.14827587
0.073411554
-0.15317276
-0.15814811
0.074707161
0.0008998216
-0.0064358827
0.0032333914
-0.01883465
0.0067291842
-0.031273022
0.011111205
-0.043599371
0.01609252
-0.055612954
0.021384658
-0.06710284
0.026713914
-0.077882554
0.031839131
-0.087814849
0.03656708
-0.096825971
0.040762238
-0.1049093
0.044349407
-0.1121194
0.047309244
-0.11855886
0.04966826
-0.12436137
0.051485626
-0.1296743
0.052839295
-0.13464359
0.053813547
-0.13940256
0.054489397
-0.14406537
0.054938464
-0.14872494
0.055220152
-0.15345445
0.055380545
-0.1583085
-0.00020237996
0.00020237995
-2.5705095e-11
-0.0006777518
0.00047537187
-3.8047488e-11
-0.0013424359
0.00066468413
-4.0543081e-11
-0.0021323096
0.00078987374
-3.9559917e-11
-0.002995794
0.0008634844
-3.8937938e-11
-0.0038907663
0.00089497235
-3.6287857e-11
-0.0047823263
0.00089155997
-3.4243644e-11
-0.0056409269
0.00085860067
-2.9605544e-11
-0.0064409042
0.00079997723
-2.5123179e-11
-0.0071593257
0.00071842154
-1.9102981e-11
-0.0077750728
0.00061574709
-1.3899891e-11
-0.0082681049
0.00049303207
-8.8155364e-12
-0.0086188799
0.00035077498
-5.1426429e-12
-0.0088079209
0.00018904099
-2.4332543e-12
-0.0088155609
7.6399951e-06
-1.2261564e-12
-0.0086219667
-0.00019359424
-1.1789563e-12
-0.0082074024
-0.00041456425
-2.4762398e-12
-0.0075518246
-0.0006555778
-4.9782549e-12
-0.0066344762
-0.00091734839
-8.7687664e-12
-0.0011862723
-0.0054482039
-1.3514827e-11
-0.00018797597
0.0003903559
-0.00062501173
0.00091240762
-0.0012287621
0.0012684345
-0.0019352078
0.0014963194
-0.0026921568
0.0016204334
-0.0034563052
0.0016591208
-0.004191091
0.0016263457
-0.0048648839
0.0015323936
-0.0054495485
0.0013846418
-0.0059193086
0.0011881817
-0.006249832
0.00094627049
-0.0064174885
0.00066068856
-0.0063987453
0.0003320317
-0.0061696875
-4.0016749e-05
-0.0057056938
-0.00045635375
-0.0049813554
-0.00091793268
-0.0039706923
-0.0014252273
-0.0026470744
-0.0019791958
-0.00098307065
-0.0025813521
-0.0032018802
0.0010325372
-0.00015892897
0.00054928484
-0.0005188948
0.0012723734
-0.001000776
0.0017503157
-0.0015412678
0.0020368113
-0.00208736
0.0021665256
-0.0025937459
0.0021655067
-0.0030208778
0.0020534776
-0.0033332999
0.0018448157
-0.0034983025
0.0015496444
-0.003484846
0.0011747252
-0.0032626772
0.00072410168
-0.0028016091
0.00019962043
-0.0020708874
-0.00039869001
-0.0010386766
-0.0010722275
0.00032836933
-0.0018233997
0.0020653837
-0.002654947
0.0042092465
-0.0035690901
0.0067982786
-0.0045682279
0.0098721727
-0.0056552462
-0.0067799178
0.01345021
-0.00011756754
0.00066685237
-0.00036700005
0.0015218059
-0.00067351576
0.0020568314
-0.00097482745
0.002338123
-0.0012168541
0.0024085522
-0.0013515905
0.0023002431
-0.0013354499
0.002037337
-0.0011278094
0.0016371751
-0.00068981307
0.0011116481
1.6579871e-05
0.00046833228
0.0010293794
-0.00028869783
0.0023872114
-0.0011582116
0.0041298634
-0.002141342
0.0062987654
-0.0032411296
0.0089374966
-0.0044621309
0.012092342
-0.0058097921
0.015812666
-0.0072894141
0.020150613
-0.0089061753
0.025160896
-0.010665529
-0.012492907
0.030873885
-6.6907649e-05
0.00073376
-0.00017916596
0.0016340642
-0.00026653157
0.002144197
-0.0002676858
0.0023392772
-0.00012718288
0.0022680493
0.00020618688
0.0019668733
0.00078072565
0.0014627983
0.0016429975
0.00077490328
0.0028387981
-8.4152533e-05
0.0044139406
-0.0011068102
0.0064148192
-0.0022895764
0.0088888254
-0.0036322178
0.011884674
-0.0051371901
0.01545273
-0.0068091865
0.01964539
-0.0086547901
0.024517691
-0.010682094
0.030128199
-0.012899922
0.036539513
-0.015317489
0.043819031
-0.017945047
-0.020682959
0.052009083
-9.9840604e-06
0.00074374405
3.4537623e-05
0.0015895425
0.00019989693
0.0019788376
0.0005467792
0.0019923949
0.0011322705
0.001682558
0.0020110182
0.0010881256
0.0032361951
0.00023762128
0.0048603827
-0.00084928427
0.0069362281
-0.002159998
0.0095168191
-0.0036874012
0.012655892
-0.0054286493
0.016407936
-0.0073842622
0.020828122
-0.0095573758
0.025972137
-0.011953202
0.03189609
-0.014578743
0.038656811
-0.017442814
0.046313032
-0.020556143
0.054927451
-0.023931909
0.064570566
-0.027588162
-0.031406155
0.075293762
5.0752399e-05
0.00069299165
0.00026566236
0.0013746326
0.00070826536
0.0015362346
0.0014390511
0.0012616091
0.0025168549
0.00060475418
0.0039996195
-0.00039463893
0.0059449913
-0.0017077505
0.0084107096
-0.0033150026
0.011454737
-0.0052040253
0.015135228
-0.007367892
0.019510261
-0.009803682
0.02463731
-0.012511312
0.030572512
-0.015492578
0.037369765
-0.018750455
0.045079797
-0.022288776
0.053749621
-0.026112637
0.063423344
-0.030229867
0.074145568
-0.034654132
0.085970323
-0.039412917
-0.044389196
0.098953364
0.00011379786
0.00057919379
0.00050850979
0.00097992062
0.0012459972
0.00079874715
0.0023868052
0.00012080114
0.003991286
-0.00099972658
0.0061199439
-0.0025232969
0.0088334166
-0.0044212231
0.012192298
-0.0066738836
0.016256732
-0.0092684597
0.02108567
-0.01219683
0.02673583
-0.015453842
0.033260372
-0.019035854
0.040707309
-0.022939514
0.049117699
-0.027160845
0.058523752
-0.031694829
0.068947201
-0.036536087
0.080399124
-0.041681789
0.092883058
-0.047138066
0.1064065
-0.052936361
-0.05899647
0.12101378
0.00017849779
0.000400696
0.00076003788
0.00039838052
0.0018053574
-0.00024657234
0.0033747475
-0.001448589
0.0055290501
-0.0031540291
0.0083294007
-0.0053236476
0.011836605
-0.007928427
0.016110213
-0.010947492
0.021207245
-0.014365491
0.02718056
-0.018170146
0.034076937
-0.022350219
0.041934865
-0.026893782
0.050782124
-0.031786772
0.060633137
-0.037011858
0.071486127
-0.042547819
0.083320104
-0.048370064
0.09609266
-0.054454346
0.10974131
-0.060786714
0.12419696
-0.067392014
-0.074275486
0.13947598
0.0002451296
0.0010199588
0.0023833621
0.0043939017
0.0071106131
0.010591998
0.014894441
0.020070288
0.0261656
0.033217658
0.041252356
0.050281655
0.060301212
0.071288288
0.083199754
0.095969587
0.10950415
0.12366459
0.13818416
0.15258847
-0.0035075283
-0.0019406756
-2.6525385e-11
-0.0012856859
-0.0022218423
-3.8038585e-11
0.0011949885
-0.0024806743
-5.1916725e-11
0.0038775953
-0.0026826068
-6.8754724e-11
0.006735331
-0.0028577357
-8.7455107e-11
0.0097508901
-0.003015559
-1.096117e-10
0.012905338
-0.0031544479
-1.3108473e-10
0.016180653
-0.0032753145
-1.5255271e-10
0.019561133
-0.0033804798
-1.72425e-10
0.02303256
-0.0034714267
-1.8970218e-10
0.026581647
-0.0035490873
-2.0329191e-10
0.030195971
-0.0036143234
-2.1149285e-10
0.033863888
-0.0036679167
-2.1260959e-10
0.037574402
-0.003710514
-2.0436314e-10
0.041317062
-0.0037426603
-1.8483418e-10
0.045081898
-0.0037648351
-1.5169069e-10
0.048859368
-0.0037774698
-1.0339539e-10
0.052640329
-0.0037809609
-3.8304426e-11
0.056416014
-0.0037756852
4.3871328e-11
0.060178024
-0.0037620105
1.4300474e-10
0.063918328
-0.0037403047
2.568148e-10
0.06762927
-0.0037109423
3.8200735e-10
0.071303578
-0.0036743077
5.1233448e-10
0.074934375
-0.0036307981
6.4022706e-10
0.078515197
-0.0035808231
7.5467492e-10
0.08204
-0.0035248036
8.4378116e-10
0.085503169
-0.0034631701
8.9256655e-10
0.088899527
-0.003396359
8.8706696e-10
0.092224337
-0.00332481
8.1204418e-10
0.095473297
-0.0032489612
6.5726608e-10
0.098642544
-0.0031692473
4.1483431e-10
0.10172864
-0.0030860947
8.8010813e-11
0.10472856
-0.0029999197
-3.1310337e-10
0.10763969
-0.002911126
-7.6063103e-10
0.11045979
-0.0028201037
-1.2174922e-09
0.11318702
-0.0027272291
-1.6257981e-09
0.11581989
-0.0026328655
-1.9244525e-09
0.11835726
-0.0025373661
-2.0383655e-09
0.12079834
-0.0024410808
-1.9098377e-09
0.1231427
-0.0023443572
-1.4880891e-09
0.12539028
-0.0022475828
-7.7349544e-10
0.12754139
-0.0021511101
1.9217955e-10
0.12959702
-0.0020556311
1.296722e-09
0.13155815
-0.0019611356
2.3806994e-09
0.1334289
-0.0018707512
3.2295744e-09
0.13520779
-0.001778892
3.6255944e-09
0.13691932
-0.001711534
3.3910026e-09
0.13851934
-0.0016000197
2.4790154e-09
0.14020882
-0.0016894805
8.7896052e-10
-0.0013341497
-1.4181074e-09
0.0028532019
-0.0037613403
0.0049504041
-0.0043190445
0.0072933257
-0.0048235959
0.0098195243
-0.0052088054
0.012507939
-0.0055461502
0.015346244
-0.0058538644
0.0183177
-0.0061259036
0.0214059
-0.0063635141
0.024596824
-0.0065714047
0.027877712
-0.0067523145
0.031236431
-0.0069078065
0.034661501
-0.0070393932
0.038142065
-0.0071484805
0.041667777
-0.0072362258
0.045228719
-0.0073036026
0.048815359
-0.007351475
0.052418518
-0.0073806286
0.056029351
-0.0073917944
0.059639341
-0.0073856743
0.063240293
-0.0073629625
0.066824348
-0.0073243607
0.070383995
-0.0072705889
0.07391208
-0.0072023923
0.077401826
-0.0071205442
0.080846849
-0.0070258458
0.084241168
-0.0069191229
0.087579219
-0.0068012214
0.090855861
-0.0066730012
0.09406638
-0.0065353288
0.097206489
-0.0063890698
0.10027232
-0.0062350823
0.10326044
-0.0060742099
0.1061678
-0.0059072761
0.10899175
-0.0057350806
0.11173004
-0.0055583963
0.11438078
-0.0053779693
0.11694244
-0.0051945213
0.11941383
-0.0050087539
0.12179411
-0.0048213638
0.12408279
-0.0046330427
0.12627978
-0.0044445644
0.1283853
-0.0042566324
0.1304003
-0.0040706284
0.1323257
-0.0038865356
0.13416552
-0.0037105777
0.13591831
-0.003531682
0.1376081
-0.0034013241
0.13919178
-0.0031836963
0.14086512
-0.0033628174
-0.0026658454
0.015021599
-0.0053327291
0.016852757
-0.0061502022
0.018906357
-0.0068771964
0.021112472
-0.0074149202
0.023459467
-0.0078931453
0.02594369
-0.0083380873
0.028552522
-0.0087347362
0.031272485
-0.0090834767
0.034092477
-0.009391397
0.03700227
-0.0096621069
0.039991742
-0.0098972787
0.043051034
-0.010098685
0.046170621
-0.010268067
0.049341248
-0.010406853
0.052553886
-0.010516241
0.055799725
-0.010597314
0.059070174
-0.010651078
0.062356873
-0.010678493
0.065651699
-0.0106805
0.068946787
-0.010658051
0.072234551
-0.010612125
0.075507705
-0.010543742
0.078759284
-0.010453971
0.081982667
-0.010343928
0.085171599
-0.010214778
0.088320202
-0.010067726
0.091422994
-0.0099040131
0.094474894
-0.0097249013
0.09747123
-0.0095316648
0.10040774
-0.0093255803
0.10328057
-0.0091079124
0.10608627
-0.0088799073
0.10882177
-0.0086427823
0.11148441
-0.0083977204
0.11407188
-0.0081458668
0.11658224
-0.0078883277
0.1190139
-0.007626175
0.12136559
-0.0073604521
0.12363643
-0.0070921971
0.12582583
-0.0068224426
0.12793361
-0.0065523453
0.12995994
-0.0062829593
0.13190566
-0.0060163495
0.13377163
-0.0057525085
0.13556172
-0.0055006726
0.13727457
-0.0052445279
0.13893324
-0.0050599917
0.14049695
-0.0047474036
0.14215085
-0.0050167249
-0.0040057803
0.032057231
-0.006516075
0.033472486
-0.0075654581
0.035078054
-0.0084827638
0.036800956
-0.0091378226
0.03864188
-0.0097340686
0.040607121
-0.010303329
0.042689511
-0.010817126
0.044879525
-0.011273491
0.047169587
-0.01168146
0.049552471
-0.01204499
0.052020468
-0.012365276
0.054565623
-0.01264384
0.057179925
-0.01288237
0.059855333
-0.01308226
0.062583783
-0.013244692
0.065357234
-0.013370764
0.068167703
-0.013461547
0.071007314
-0.013518104
0.073868335
-0.013541521
0.076743216
-0.013532931
0.079624623
-0.013493532
0.082505479
-0.013424598
0.085378989
-0.013327481
0.088238672
-0.013203611
0.091078386
-0.013054491
0.093892344
-0.012881684
0.096675134
-0.012686803
0.099421729
-0.012471496
0.10212749
-0.012237427
0.10478818
-0.011986268
0.10739994
-0.011719677
0.10995932
-0.011439288
0.11246324
-0.011146698
0.11490898
-0.010843465
0.11729421
-0.010531094
0.11961693
-0.010211043
0.12187548
-0.0098847261
0.12406855
-0.0095535236
0.12619516
-0.0092188092
0.12825467
-0.0088819544
0.13024682
-0.0085444963
0.13217171
-0.0082078405
0.13403008
-0.0078747267
0.13582276
-0.0075451814
0.13755341
-0.0072313302
0.13922087
-0.0069119853
0.14084682
-0.0066859427
0.14239396
-0.0062945409
0.14403217
-0.0066549383
-0.0053698516
0.052649431
-0.0071564226
0.053490074
-0.0084061017
0.054484249
-0.0094769386
0.055566268
-0.010219842
0.056750949
-0.010918749
0.058052585
-0.011604965
0.059469688
-0.012234229
0.060997391
-0.012801193
0.062631482
-0.013315551
0.064367365
-0.013780874
0.06619952
-0.01419743
0.068121676
-0.014565997
0.070127071
-0.014887764
0.072208603
-0.015163792
0.074358924
-0.015395013
0.076570523
-0.015582363
0.078835808
-0.015726832
0.081147185
-0.015829482
0.083497127
-0.015891464
0.085878232
-0.015914036
0.088283274
-0.015898574
0.090705252
-0.015846576
0.093137427
-0.015759656
0.09557336
-0.015639544
0.098006937
-0.015488068
0.10043239
-0.015307139
0.10284433
-0.015098738
0.10523772
-0.014864888
0.10760794
-0.014607644
0.10995073
-0.014329062
0.11226224
-0.014031188
0.11453899
-0.01371604
0.11677789
-0.013385593
0.11897619
-0.013041768
0.12113153
-0.012686429
0.12324187
-0.012321384
0.12530553
-0.011948385
0.12732115
-0.011569146
0.12928772
-0.011185377
0.13120455
-0.010798788
0.13307135
-0.010411299
0.13488818
-0.010024668
0.13665576
-0.0096423035
0.13837487
-0.0092642959
0.14004905
-0.008905506
0.1416774
-0.0085403358
0.14327994
-0.0082884865
0.1448238
-0.0078383982
0.14645996
-0.0082910938
-0.0067813016
0.075222796
-0.0070854567
0.075327809
-0.0085111141
0.075552231
-0.0097013605
0.075852579
-0.01052019
0.076256888
-0.011323059
0.076782013
-0.01213009
0.077430988
-0.012883204
0.078203744
-0.013573949
0.079098589
-0.014210397
0.080112376
-0.014794661
0.081240862
-0.015325916
0.082478751
-0.015803885
0.083819859
-0.016228872
0.085257407
-0.01660134
0.086784218
-0.016921824
0.088392841
-0.017190986
0.090075658
-0.017409649
0.09182499
-0.017578814
0.093633195
-0.017699669
0.095492736
-0.017773577
0.097396248
-0.017802085
0.099336588
-0.017786916
0.10130689
-0.017729959
0.10330059
-0.017633246
0.10531147
-0.01749895
0.10733367
-0.017329341
0.10936172
-0.017126781
0.11139051
-0.016893684
0.11341537
-0.016632503
0.11543201
-0.016345695
0.11743652
-0.016035702
0.11942541
-0.015704934
0.12139557
-0.015355749
0.12334425
-0.014990443
0.12526906
-0.014611245
0.12716799
-0.014220313
0.12903935
-0.013819748
0.13088181
-0.013411602
0.13269436
-0.012997927
0.13447635
-0.012580779
0.13622751
-0.012162462
0.13794795
-0.011745102
0.1396384
-0.01133276
0.14129974
-0.010925636
0.14293538
-0.010541147
0.14454486
-0.010149812
0.14614634
-0.0098899704
0.14771211
-0.0094041668
0.1493718
-0.009950779
-0.0082722461
0.098026414
-0.0061585066
0.097259188
-0.0077438881
0.096582947
-0.0090251193
0.095998563
-0.0099358058
0.095542165
-0.010866662
0.095224986
-0.011812911
0.095052394
-0.012710611
0.095028391
-0.013549946
0.095152511
-0.014334516
0.095421488
-0.015063638
0.095830963
-0.015735391
0.096375527
-0.016348449
0.097048695
-0.01690204
0.097843235
-0.01739588
0.098751464
-0.017830053
0.09976541
-0.018204932
0.10087694
-0.018521176
0.10207786
-0.018779741
0.10336006
-0.018981867
0.10471554
-0.019129057
0.10613652
-0.019223066
0.10761548
-0.019265876
0.10914522
-0.01925969
0.11071886
-0.019206891
0.11232994
-0.019110025
0.11397237
-0.01897177
0.11564048
-0.018794898
0.11732905
-0.018582254
0.11903327
-0.01833672
0.12074875
-0.01806118
0.12247156
-0.017758507
0.12419815
-0.017431524
0.1259254
-0.017082997
0.12765057
-0.016715619
0.12937133
-0.016332002
0.13108569
-0.015934674
0.13279204
-0.015526099
0.13448912
-0.015108683
0.13617603
-0.014684837
0.13785222
-0.014256972
0.13951755
-0.013827793
0.14117225
-0.013399802
0.14281721
-0.012977718
0.14445346
-0.012561884
0.14608441
-0.012172095
0.14771014
-0.011775541
0.14934693
-0.011526761
0.15097269
-0.011029925
0.15269449
-0.011672586
-0.0098844462
0.11919017
-0.0043349013
0.11749761
-0.0060513266
0.11585814
-0.0073856469
0.11435566
-0.0084333264
0.11302641
-0.0095374138
0.1118679
-0.010654405
0.11088561
-0.011728314
0.1100858
-0.012750139
0.10946789
-0.013716611
0.1090273
-0.01462304
0.10875819
-0.01546629
0.10865393
-0.016244183
0.1087069
-0.016955014
0.10890881
-0.017597783
0.10925091
-0.018172162
0.10972429
-0.018678306
0.1103199
-0.019116787
0.11102874
-0.019488584
0.11184193
-0.019795058
0.11275079
-0.020037918
0.11374691
-0.020219189
0.11482222
-0.020341183
0.11596901
-0.020406476
0.11717997
-0.020417858
0.11844826
-0.020378316
0.11976748
-0.020290983
0.12113169
-0.020159106
0.12253544
-0.019986007
0.12397377
-0.019775046
0.12544217
-0.019529588
0.12693664
-0.019252971
0.12845359
-0.01894848
0.12998992
-0.018619327
0.13154294
-0.018268633
0.13311036
-0.017899426
0.13469033
-0.017514638
0.13628135
-0.017117119
0.13788233
-0.016709662
0.13949254
-0.016295051
0.14111165
-0.015876083
0.14273974
-0.015455878
0.14437727
-0.015037338
0.14602539
-0.014625838
0.14768542
-0.014221912
0.14936088
-0.013847551
0.15105251
-0.013467171
0.15277475
-0.013249007
0.1545114
-0.012766574
0.15634686
-0.013508041
-0.011669248
0.13689704
-0.0017559615
0.13437911
-0.0035334004
0.13182058
-0.004827118
0.12946356
-0.0060763042
0.12733525
-0.0074091054
0.12541703
-0.0087361848
0.12371173
-0.010023014
0.12222444
-0.011262846
0.1209536
-0.012445776
0.11989345
-0.013562891
0.11903648
-0.014609321
0.11837435
-0.015582048
0.11789805
-0.016478718
0.11759807
-0.017297799
0.11746453
-0.018038624
0.11748743
-0.018701202
0.11765674
-0.019286101
0.11796256
-0.019794397
0.11839514
-0.020227639
0.11894503
-0.020587811
0.11960312
-0.020877276
0.12036068
-0.02109874
0.12120942
-0.021255219
0.12214154
-0.021349982
0.12314975
-0.021386518
0.12422725
-0.021368486
0.12536781
-0.021299668
0.12656573
-0.021183928
0.12781585
-0.021025168
0.12911355
-0.020827288
0.13045473
-0.020594152
0.13183581
-0.020329558
0.1332537
-0.020037213
0.13470578
-0.019720716
0.13618991
-0.019383554
0.13770438
-0.019029103
0.1392479
-0.018660643
0.14081961
-0.018281377
0.14241907
-0.017894507
0.14404623
-0.017503239
0.14570149
-0.01711114
0.14738568
-0.016721531
0.1491003
-0.016340459
0.15084708
-0.01596869
0.15262977
-0.015630243
0.1544499
-0.015287295
0.15632017
-0.015119277
0.15823037
-0.014676781
0.16024267
-0.015520333
-0.013686687
0.15005299
0.00077952001
0.14676407
-0.00024448424
0.14346677
-0.0015298145
0.14041903
-0.003028564
0.13762418
-0.0046142541
0.13507596
-0.0061879669
0.13277621
-0.0077232649
0.13072502
-0.0092116512
0.12891994
-0.010640697
0.12735577
-0.011998726
0.1260247
-0.013278247
0.12491731
-0.014474657
0.12402342
-0.015584835
0.12333239
-0.016606764
0.12283322
-0.017539455
0.12251481
-0.018382789
0.12236608
-0.019137371
0.12237612
-0.019804437
0.12253427
-0.020385793
0.12283022
-0.020883757
0.12325404
-0.021301103
0.12379631
-0.021641008
0.12444809
-0.021906997
0.125201
-0.022102897
0.12604726
-0.022232775
0.12697967
-0.022300891
0.12799164
-0.022311639
0.12907721
-0.022269501
0.13023104
-0.022178992
0.13144837
-0.022044619
0.13272505
-0.021870839
0.13405752
-0.021662023
0.13544274
-0.021422437
0.13687824
-0.021156214
0.13836204
-0.020867356
0.13989267
-0.020559728
0.14146911
-0.020237082
0.14309081
-0.019903082
0.14475768
-0.019561381
0.14647007
-0.019215627
0.1482288
-0.018869868
0.15003514
-0.018527868
0.15189105
-0.018196373
0.15379875
-0.017876386
0.15576238
-0.017593876
0.15778416
-0.017309073
0.15987568
-0.017210794
0.16203116
-0.016832262
0.16429555
-0.017784727
-0.016001716
0.18891012
0.0053815651
-0.19351217
0.18510014
0.0035654987
0.18170816
0.0018621637
0.1785631
0.00011650256
0.1756276
-0.0016787567
0.17287664
-0.0034370062
0.17029199
-0.0051386168
0.16786466
-0.0067843227
0.16559077
-0.0083668073
0.16346817
-0.0098761209
0.16149499
-0.011305065
0.15966912
-0.01264879
0.15798792
-0.013903639
0.15644811
-0.01506695
0.15504575
-0.016137102
0.15377639
-0.017113428
0.1526351
-0.017996076
0.15161658
-0.018785915
0.15071525
-0.019484466
0.14992534
-0.020093851
0.14924096
-0.02061672
0.14865615
-0.021056196
0.14816497
-0.021415816
0.14776154
-0.021699466
0.14744009
-0.021911327
0.14719501
-0.022055809
0.14702086
-0.022137493
0.14691243
-0.022161075
0.14686475
-0.022131309
0.14687308
-0.022052955
0.14693298
-0.021930738
0.14704027
-0.021769309
0.14719104
-0.021573212
0.1473817
-0.02134687
0.14760891
-0.021094567
0.14786964
-0.020820457
0.14816114
-0.020528576
0.14848093
-0.020222877
0.14882685
-0.019907303
0.14919703
-0.019585802
0.14958991
-0.019262749
0.15000427
-0.018942227
0.15043935
-0.018631456
0.15089465
-0.018331682
0.15137079
-0.018070023
0.15186765
-0.017805931
0.15238975
-0.017732896
0.15293274
-0.017375251
0.15351983
-0.018371817
-0.016596715
0.21685897
0.0087798404
-0.22025724
0.21338514
0.0070393277
0.21017239
0.0050749171
0.20706713
0.0032217544
0.2040206
0.0013677754
0.20106375
-0.000480152
0.19821346
-0.0022883241
0.19547424
-0.0040451044
0.19285199
-0.0057445641
0.19035356
-0.0073776851
0.18798413
-0.0089356367
0.18574711
-0.010411766
0.18364448
-0.011801016
0.18167696
-0.013099427
0.179844
-0.014304144
0.17814398
-0.01541341
0.17657436
-0.016426454
0.17513182
-0.017343371
0.17381241
-0.018165053
0.17261167
-0.018893113
0.17152476
-0.019529812
0.17054655
-0.020077988
0.16967172
-0.020540986
0.16889484
-0.020922583
0.16821043
-0.021226923
0.16761307
-0.021458445
0.16709739
-0.021621812
0.16665816
-0.02172185
0.16629034
-0.021763482
0.16598905
-0.02175167
0.16574968
-0.021691366
0.16556784
-0.021587468
0.16543941
-0.021444783
0.16536055
-0.021268007
0.16532769
-0.021061706
0.16533755
-0.020830318
0.16538714
-0.020578172
0.16547378
-0.020309515
0.16559507
-0.020028593
0.16574894
-0.019739667
0.16593363
-0.019447443
0.16614777
-0.019156366
0.16639036
-0.018874046
0.16666092
-0.018602242
0.16695931
-0.018368419
0.16728679
-0.018133411
0.16764262
-0.018088723
0.16803507
-0.017767701
0.16844629
-0.018783038
-0.017072985
0.2437678
0.011503741
-0.2464917
0.24091742
0.0098897099
0.23806427
0.0079280707
0.23521736
0.006068657
0.23233962
0.0042455156
0.22945187
0.0024076025
0.22658532
0.00057822458
0.22375927
-0.0012190587
0.22098965
-0.0029749392
0.21829238
-0.0046804172
0.21568133
-0.0063245847
0.21316749
-0.0078979294
0.21075948
-0.0093930068
0.20846386
-0.010803804
0.20628526
-0.012125539
0.20422655
-0.013354707
0.20228911
-0.014489007
0.20047296
-0.015527222
0.19877702
-0.016469118
0.19719927
-0.017315361
0.19573689
-0.01806743
0.19438643
-0.018727528
0.19314394
-0.0192985
0.1920051
-0.019783745
0.19096532
-0.020187136
0.19001981
-0.020512937
0.18916372
-0.020765723
0.18839217
-0.020950301
0.18770033
-0.021071644
0.18708348
-0.021134814
0.18653702
-0.021144911
0.18605657
-0.021107017
0.18563794
-0.021026154
0.18527719
-0.020907255
0.18497063
-0.020755145
0.18471484
-0.020574534
0.18450671
-0.020370034
0.18434338
-0.020146186
0.18422233
-0.019907544
0.18414135
-0.019658691
0.18409857
-0.019404663
0.18409251
-0.019150304
0.18412199
-0.018903529
0.18418662
-0.018666873
0.18428552
-0.018467314
0.18442141
-0.018269303
0.18458793
-0.018255246
0.18480698
-0.017986748
0.18501476
-0.018990818
-0.01740806
0.26927545
0.013536648
-0.27130836
0.26710746
0.012057706
0.26476575
0.010269781
0.26232657
0.0085078294
0.25979788
0.006774209
0.25718985
0.0050156371
0.25452859
0.0032394783
0.25183829
0.0014712415
0.24913894
-0.00027559063
0.24645035
-0.0019918256
0.24379181
-0.0036660404
0.24118045
-0.0052865683
0.238631
-0.0068435559
0.23615594
-0.0083287531
0.23376559
-0.0097351843
0.23146809
-0.011057209
0.22926963
-0.01229055
0.22717461
-0.013432202
0.22518583
-0.014480337
0.22330469
-0.015434214
0.22153135
-0.016294093
0.21986495
-0.017061134
0.21830376
-0.017737307
0.21684531
-0.018325292
0.21548656
-0.018828383
0.21422401
-0.019250395
0.21305386
-0.019595573
0.21197206
-0.019868497
0.21097442
-0.020074005
0.21005672
-0.020217109
0.20921473
-0.020302927
0.20844433
-0.020336619
0.20774152
-0.020323338
0.20710245
-0.020268187
0.2065235
-0.020176198
0.20600129
-0.020052317
0.20553267
-0.019901413
0.20511479
-0.019728309
0.2047451
-0.019537853
0.20442136
-0.019334952
0.20414166
-0.019124966
0.20390452
-0.018913163
0.20370868
-0.018707689
0.20355386
-0.01851205
0.20343859
-0.018352048
0.20336682
-0.018197531
0.20332738
-0.018215803
0.20335352
-0.018012888
0.20334007
-0.01897737
-0.01757973
0.2929861
0.014867754
-0.2943172
0.29150689
0.01353691
0.28978444
0.011992233
0.28788585
0.01040642
0.28584599
0.008814073
0.28367566
0.0071859588
0.2813933
0.0055218461
0.27902213
0.003842412
0.27658345
0.00216308
0.27409745
0.00049418296
0.2715843
-0.0011528948
0.26906374
-0.0027660107
0.2665541
-0.0043339103
0.26407196
-0.0058466115
0.26163206
-0.0072952867
0.25924717
-0.0086723205
0.25692805
-0.0099714315
0.25468352
-0.011187673
0.25252056
-0.012317379
0.25044445
-0.013358104
0.24845891
-0.014308551
0.24656627
-0.015168491
0.24476763
-0.015938667
0.24306303
-0.016620695
0.24145162
-0.017216966
0.23993176
-0.01773054
0.23850124
-0.01816505
0.23715734
-0.018524597
0.23589699
-0.018813657
0.23471687
-0.019036989
0.2336135
-0.019199558
0.23258334
-0.019306454
0.23162283
-0.019362835
0.23072852
-0.019373876
0.22989706
-0.019344731
0.22912526
-0.019280517
0.22841016
-0.019186317
0.22774905
-0.019067195
0.22713947
-0.018928273
0.22657928
-0.018774768
0.22606666
-0.018612348
0.22560021
-0.018446711
0.2251787
-0.018286177
0.22480199
-0.018135336
0.22446826
-0.018018318
0.22418228
-0.01791156
0.22392924
-0.017962763