/*--------------------------------*- C++ -*----------------------------------*\
  =========                 |
  \\      /  F ield         | OpenFOAM: The Open Source CFD Toolbox
   \\    /   O peration     | Website:  https://openfoam.org
    \\  /    A nd           | Version:  6
     \\/     M anipulation  |
\*---------------------------------------------------------------------------*/
FoamFile
{
    version     2.0;
    format      ascii;
    class       volScalarField;
    location    "133";
    object      pMean;
}
// * * * * * * * * * * * * * * * * * * * * * * * * * * * * * * * * * * * * * //

dimensions      [0 2 -2 0 0 0 0];

internalField   nonuniform List<scalar> 
9200
(
-0.4019915
-0.38974074
-0.37878736
-0.36911796
-0.35965199
-0.35038833
-0.34141209
-0.33268672
-0.32413953
-0.31569567
-0.3072814
-0.298829
-0.2902838
-0.28161127
-0.27280694
-0.26391328
-0.25501386
-0.24620202
-0.23847617
-0.23601235
-0.42060065
-0.40590148
-0.39301385
-0.38181311
-0.37094847
-0.36038881
-0.35020956
-0.34034444
-0.33069069
-0.32114994
-0.31163177
-0.30205929
-0.29237657
-0.28255401
-0.27259311
-0.2625295
-0.2524038
-0.24222531
-0.23266491
-0.22585137
-0.4395135
-0.42236116
-0.40759688
-0.39493945
-0.3827297
-0.37088876
-0.35947185
-0.34837705
-0.33747174
-0.32664011
-0.31578614
-0.30483863
-0.29375732
-0.28253495
-0.27119606
-0.25979161
-0.24837119
-0.236952
-0.22593162
-0.21642296
-0.45826551
-0.43869448
-0.42212637
-0.40807381
-0.39453357
-0.38136391
-0.36859393
-0.35608818
-0.34369463
-0.33129762
-0.31881779
-0.30621392
-0.29348469
-0.28066517
-0.26781888
-0.25502694
-0.24236396
-0.2298731
-0.21782313
-0.20696281
-0.47619511
-0.45432336
-0.43607373
-0.42070129
-0.40583374
-0.39125764
-0.37697859
-0.36284111
-0.34869669
-0.33445838
-0.32009357
-0.30561831
-0.2910915
-0.27660359
-0.2622624
-0.2481787
-0.23444613
-0.22112264
-0.20839741
-0.19678786
-0.49244814
-0.46849848
-0.44874687
-0.43214105
-0.41593344
-0.39984178
-0.38386371
-0.36785207
-0.35169767
-0.33537887
-0.31894153
-0.30248154
-0.2861289
-0.27002889
-0.25432382
-0.23913867
-0.22456667
-0.2106588
-0.19754019
-0.18555594
-0.50599372
-0.48030652
-0.45929277
-0.44155084
-0.42397887
-0.4062448
-0.38836916
-0.37025583
-0.35187982
-0.33332304
-0.31473563
-0.29630417
-0.27822611
-0.26068655
-0.2438407
-0.22780426
-0.21264714
-0.19839247
-0.18510421
-0.17298826
-0.51564802
-0.4886957
-0.46673243
-0.44797667
-0.42902624
-0.40953636
-0.38959553
-0.36921177
-0.34849176
-0.32765353
-0.30696578
-0.28670243
-0.26711148
-0.24839333
-0.23069
-0.21408461
-0.19860536
-0.18423444
-0.17097608
-0.15891804
-0.52005421
-0.49237158
-0.46975823
-0.45006241
-0.4296845
-0.40833176
-0.38622154
-0.36352201
-0.34050821
-0.31754614
-0.29501311
-0.27324531
-0.25250941
-0.23298985
-0.21479005
-0.19794321
-0.18242649
-0.16817809
-0.15514682
-0.14331879
-0.51785744
-0.48990557
-0.46680802
-0.44613087
-0.42422774
-0.40094242
-0.37668494
-0.35182564
-0.32681688
-0.30215152
-0.27827521
-0.25553981
-0.23418815
-0.21435712
-0.19609283
-0.17937163
-0.16412141
-0.15024295
-0.13763704
-0.12620079
-0.28133692
-0.28561073
-0.28749523
-0.28769494
-0.28689667
-0.28526414
-0.28289646
-0.27989101
-0.27632378
-0.27225323
-0.26772748
-0.26278793
-0.25747142
-0.25181171
-0.24584075
-0.23959121
-0.23309795
-0.22638536
-0.21945564
-0.21240151
-0.28432588
-0.28815412
-0.28971658
-0.28969166
-0.2887078
-0.28692004
-0.28442532
-0.28131651
-0.2776655
-0.27352752
-0.26894799
-0.26396591
-0.25861602
-0.25292983
-0.24693648
-0.24066736
-0.23416467
-0.22745112
-0.22041888
-0.21304096
-0.29014429
-0.2931057
-0.29404308
-0.2935791
-0.29223181
-0.29014056
-0.28739792
-0.28408806
-0.28027491
-0.27600736
-0.27132535
-0.26626313
-0.26085113
-0.25511665
-0.24908357
-0.24277993
-0.23625895
-0.22954249
-0.22232739
-0.21434129
-0.29851153
-0.30023884
-0.3002751
-0.29916592
-0.29727811
-0.29473103
-0.29161201
-0.28799349
-0.28392839
-0.2794567
-0.27461059
-0.26941741
-0.2639014
-0.25808359
-0.25198063
-0.24561475
-0.2390502
-0.23231411
-0.22485827
-0.21602726
-0.30907474
-0.30926929
-0.30816422
-0.30621699
-0.3036157
-0.30045876
-0.29682879
-0.29278492
-0.28836715
-0.28360497
-0.27852113
-0.27313374
-0.26745873
-0.26150958
-0.25529439
-0.24882659
-0.24217722
-0.23538717
-0.22765718
-0.21781148
-0.32146864
-0.31990251
-0.31745527
-0.31449507
-0.31101653
-0.30709902
-0.30282269
-0.29823364
-0.2933583
-0.28821313
-0.28280894
-0.27715354
-0.27125322
-0.26511242
-0.2587298
-0.25210735
-0.2453152
-0.2384137
-0.23038587
-0.21942818
-0.33536892
-0.33187546
-0.32792373
-0.32379877
-0.319296
-0.31447961
-0.3094313
-0.3041838
-0.29874738
-0.29312485
-0.28731437
-0.28131152
-0.27511127
-0.26870807
-0.26209144
-0.25525196
-0.24825241
-0.24117561
-0.23285197
-0.22079707
-0.35052316
-0.34498175
-0.33940008
-0.33398923
-0.32834441
-0.32251807
-0.31659382
-0.31059067
-0.30450294
-0.29831794
-0.29201849
-0.28558515
-0.27899882
-0.27224171
-0.26529393
-0.25813797
-0.25083474
-0.2435131
-0.23496848
-0.22204364
-0.36674937
-0.35906171
-0.35174789
-0.3449548
-0.33807286
-0.3311419
-0.32424963
-0.3174011
-0.31057219
-0.30373189
-0.29684461
-0.2898723
-0.28277695
-0.27552111
-0.26806345
-0.26036063
-0.25244009
-0.24441408
-0.23508039
-0.22101062
-0.38392597
-0.37398233
-0.36482732
-0.3565485
-0.34832043
-0.34017029
-0.33218997
-0.32436883
-0.31666246
-0.30902063
-0.30138989
-0.29371628
-0.28594848
-0.27803804
-0.26993423
-0.26157968
-0.25292503
-0.24377691
-0.23254501
-0.21628525
-0.20442236
-0.19453161
-0.18468943
-0.17497838
-0.1653387
-0.1558103
-0.14645073
-0.13729691
-0.12837728
-0.11971923
-0.11134719
-0.10328129
-0.095537918
-0.088130209
-0.081068186
-0.074358836
-0.068006302
-0.062012061
-0.056375101
-0.051092094
-0.046157581
-0.041564174
-0.037302754
-0.033362688
-0.029732041
-0.026397795
-0.023346068
-0.020562322
-0.018031574
-0.015738586
-0.013668051
-0.011804759
-0.010133753
-0.0086404702
-0.0073108658
-0.0061315285
-0.0050897923
-0.004173819
-0.0033727745
-0.0026767141
-0.0020775109
-0.0015665426
-0.0011430175
-0.0007894769
-0.00054932041
-0.00029685386
-0.00042987458
0.00015303362
-0.0018663178
0.0029060476
-0.20580274
-0.19546752
-0.18549122
-0.17578127
-0.16610551
-0.15652682
-0.14712441
-0.13793118
-0.12897244
-0.12027626
-0.11186756
-0.10376636
-0.095988965
-0.088548594
-0.081455321
-0.07471617
-0.068335309
-0.062314242
-0.056651967
-0.051345156
-0.04638834
-0.041774108
-0.037493311
-0.033535274
-0.029888015
-0.026538463
-0.023472676
-0.020676056
-0.018133553
-0.015829863
-0.01374961
-0.011877518
-0.010198562
-0.0086981142
-0.0073620648
-0.0061769408
-0.0051300164
-0.004209396
-0.0034041905
-0.0027044022
-0.0021018526
-0.0015878699
-0.0011615973
-0.00080556168
-0.00056289789
-0.00030846123
-0.00043748275
0.00014399102
-0.0018550326
0.0028765229
-0.20859745
-0.19732906
-0.18709169
-0.17742914
-0.16769891
-0.15802362
-0.14854031
-0.13927191
-0.13023572
-0.12146232
-0.11297834
-0.10480368
-0.09695476
-0.089445149
-0.08228521
-0.075482157
-0.069040323
-0.062961339
-0.057244294
-0.051885909
-0.046880727
-0.042221319
-0.037898489
-0.03390149
-0.030218249
-0.026835582
-0.023739426
-0.020915045
-0.018347248
-0.016020583
-0.013919522
-0.012028638
-0.010332756
-0.008817099
-0.0074674136
-0.0062700874
-0.0052122605
-0.0042819094
-0.0034680227
-0.0027604854
-0.002151006
-0.001630803
-0.0011988869
-0.00083773435
-0.0005899818
-0.00033149177
-0.00045256669
0.00012625086
-0.0018326337
0.0028180345
-0.21251511
-0.19977738
-0.18916913
-0.17968422
-0.169931
-0.1601366
-0.1505587
-0.14120303
-0.1320698
-0.12319508
-0.11460997
-0.10633465
-0.098385863
-0.090778133
-0.083522601
-0.076627026
-0.070096185
-0.063932078
-0.058134074
-0.052699085
-0.047621776
-0.042894772
-0.038508873
-0.03445328
-0.030715823
-0.027283191
-0.024141159
-0.021274811
-0.018668757
-0.016307333
-0.014174793
-0.012255485
-0.010534011
-0.0089953707
-0.0076250944
-0.006409358
-0.0053350979
-0.0043900951
-0.0035631517
-0.0028439732
-0.0022240956
-0.0016945694
-0.0012542048
-0.00088539741
-0.00063004626
-0.00036549145
-0.00047475359
0.00010018645
-0.0017993891
0.0027317802
-0.21718562
-0.20243385
-0.1913594
-0.18225657
-0.17257161
-0.16266433
-0.15300343
-0.1435763
-0.13435028
-0.12536878
-0.11667233
-0.10828277
-0.10021748
-0.092492637
-0.085120957
-0.078111351
-0.071469497
-0.065198155
-0.059297298
-0.053764298
-0.048594146
-0.043779682
-0.039311824
-0.035179804
-0.031371412
-0.027873233
-0.02467089
-0.021749274
-0.019092767
-0.016685454
-0.014511322
-0.01255444
-0.010799126
-0.0092300942
-0.0078325923
-0.00659252
-0.0054965461
-0.004532193
-0.0036880161
-0.0029534817
-0.0023198965
-0.001778087
-0.0013265969
-0.00094771252
-0.0006823579
-0.00040981881
-0.00050354716
6.6369981e-05
-0.0017558383
0.0026196437
-0.22214076
-0.20493267
-0.1933201
-0.18483597
-0.17537504
-0.16539872
-0.1556844
-0.14622474
-0.13693648
-0.12786436
-0.11906343
-0.11056084
-0.10237547
-0.094525695
-0.087026774
-0.079889655
-0.0731216
-0.066726677
-0.060705941
-0.055057619
-0.049777358
-0.044858475
-0.040292211
-0.036067991
-0.032173681
-0.028595845
-0.025320005
-0.022330882
-0.019612636
-0.017149089
-0.014923932
-0.012920918
-0.011124033
-0.009517655
-0.0080866949
-0.0068167183
-0.0056940681
-0.004705951
-0.0038406181
-0.0030872417
-0.0024368446
-0.0018799761
-0.0014148484
-0.0010236158
-0.00074599052
-0.00046366868
-0.00053833564
2.550874e-05
-0.0017027065
0.0024840723
-0.22690809
-0.20704326
-0.19480131
-0.18709949
-0.17809086
-0.168166
-0.15844442
-0.14899708
-0.13969593
-0.13057011
-0.12168727
-0.11308535
-0.10478737
-0.096814599
-0.089185651
-0.081914607
-0.075011228
-0.068481599
-0.062328451
-0.056551378
-0.051147098
-0.046109748
-0.041431167
-0.037101185
-0.033107908
-0.029438002
-0.026076969
-0.023009417
-0.020219311
-0.017690214
-0.015405514
-0.013348621
-0.011503159
-0.0098531268
-0.0083830514
-0.0070781154
-0.0059242847
-0.004908398
-0.0040183514
-0.0032429717
-0.0025729477
-0.0019985027
-0.0015174554
-0.0011118115
-0.00081983524
-0.00052610248
-0.00057842049
-2.1635271e-05
-0.0016408435
0.0023279188
-0.23118334
-0.20912775
-0.19601675
-0.18885804
-0.1804941
-0.17085963
-0.16121905
-0.15181647
-0.14254557
-0.133409
-0.12447365
-0.11579077
-0.10739208
-0.099303038
-0.091546145
-0.084139441
-0.077096059
-0.070424798
-0.064130627
-0.058214992
-0.0526761
-0.04750925
-0.042707162
-0.038260302
-0.0341572
-0.030384764
-0.026928585
-0.023773227
-0.020902509
-0.018299764
-0.01594808
-0.013830519
-0.01193032
-0.010231078
-0.0087168985
-0.0073725419
-0.0061835541
-0.0051363616
-0.0042184602
-0.0034182858
-0.0027261477
-0.0021318995
-0.0016329065
-0.0012110189
-0.00090281415
-0.00059622877
-0.00062316266
-7.4375057e-05
-0.0015712282
0.0021543844
-0.23263191
-0.2113459
-0.19758719
-0.19002798
-0.18215051
-0.17309709
-0.16373099
-0.15444907
-0.14527054
-0.13619197
-0.12726403
-0.1185464
-0.11008273
-0.10190512
-0.094040726
-0.086512275
-0.079337248
-0.072528109
-0.066092905
-0.060035683
-0.054356817
-0.049053363
-0.044119437
-0.039546574
-0.035324089
-0.031439429
-0.027878506
-0.024626026
-0.021665799
-0.018981019
-0.016554539
-0.014369109
-0.012407595
-0.01065318
-0.009089529
-0.0077009499
-0.0064725303
-0.0053902409
-0.0044411308
-0.0036131961
-0.0028963169
-0.002279928
-0.0017608776
-0.0013208441
-0.0009944995
-0.0006735437
-0.0006722479
-0.00013186267
-0.0014953412
0.0019676677
-0.22313959
-0.21079442
-0.19894996
-0.19004838
-0.18215167
-0.17390125
-0.16515963
-0.15625522
-0.14736658
-0.13852354
-0.12975894
-0.12113362
-0.11270478
-0.10451598
-0.096602749
-0.088995399
-0.081718488
-0.074790647
-0.068225148
-0.062030456
-0.056210644
-0.05076581
-0.045692522
-0.040984251
-0.036631797
-0.032623693
-0.02894661
-0.025585722
-0.02252507
-0.019747886
-0.017236903
-0.014974625
-0.012943579
-0.011126536
-0.0095067081
-0.0080679126
-0.0067947353
-0.0056726387
-0.004688169
-0.0038288228
-0.0030839924
-0.0024426317
-0.0019010107
-0.0014405838
-0.0010939855
-0.00075680848
-0.00072484783
-0.00019175133
-0.0014154683
0.0017735657
-0.2016333
-0.20477761
-0.19848942
-0.18888023
-0.18061776
-0.1728074
-0.1645363
-0.15595502
-0.14732489
-0.138712
-0.13014213
-0.12167227
-0.11336384
-0.10526532
-0.097415954
-0.089849531
-0.08259406
-0.075671406
-0.06909775
-0.062884157
-0.057037011
-0.051558437
-0.046446755
-0.041696936
-0.037301047
-0.033248677
-0.029527358
-0.026122959
-0.023020061
-0.020202307
-0.017652721
-0.015354007
-0.013288806
-0.011439934
-0.0097905907
-0.0083245384
-0.007026268
-0.0058811192
-0.0048754884
-0.0039967083
-0.0032339561
-0.0025760357
-0.0020187019
-0.0015438264
-0.0011811056
-0.00083263956
-0.00077048489
-0.00025091294
-0.0013308797
0.0015807786
-0.19047615
-0.19472135
-0.19030554
-0.18102584
-0.17318374
-0.16620709
-0.15881065
-0.15101216
-0.14309831
-0.13514696
-0.12717565
-0.11923787
-0.11139792
-0.10370858
-0.096213405
-0.088950706
-0.081953249
-0.075247592
-0.068854415
-0.062789034
-0.057061806
-0.05167853
-0.046640895
-0.04194693
-0.037591461
-0.033566549
-0.029861921
-0.026465384
-0.023363213
-0.020540522
-0.017981602
-0.015670231
-0.01358996
-0.01172436
-0.010057249
-0.0085728873
-0.0072561593
-0.0060927046
-0.0050691294
-0.0041729232
-0.0033932776
-0.0027191442
-0.002145718
-0.0016559806
-0.0012753713
-0.00091604744
-0.00081785915
-0.00032001689
-0.0012306903
0.0013709639
-0.18099132
-0.18285054
-0.17971081
-0.17222799
-0.16532725
-0.15912088
-0.15255749
-0.14555089
-0.13835664
-0.13107113
-0.12371455
-0.11633483
-0.10899535
-0.10175109
-0.094648199
-0.087727941
-0.081026561
-0.074574418
-0.068396064
-0.062510657
-0.056932301
-0.051670381
-0.046729967
-0.042112241
-0.037814935
-0.033832763
-0.030157854
-0.026780163
-0.023687878
-0.020867793
-0.018305665
-0.015986537
-0.01389504
-0.012015656
-0.010332962
-0.008831841
-0.0074976754
-0.0063164971
-0.005275198
-0.0043614889
-0.0035646171
-0.0028737374
-0.0022834422
-0.0017779962
-0.0013780746
-0.0010071689
-0.00086913736
-0.00039596881
-0.0011187018
0.0011393871
-0.17056455
-0.17008718
-0.16749224
-0.16211528
-0.15651
-0.15112103
-0.14541256
-0.13927425
-0.13287505
-0.12631584
-0.11963185
-0.11286933
-0.10608859
-0.099345513
-0.092688507
-0.086161306
-0.079803157
-0.073647912
-0.067723851
-0.062053943
-0.056656099
-0.05154343
-0.046724587
-0.042204142
-0.037982997
-0.034058795
-0.030426344
-0.027078026
-0.024004201
-0.021193595
-0.018633662
-0.016310923
-0.014211279
-0.012320297
-0.010623464
-0.0091064169
-0.0077551494
-0.0065561816
-0.0054967703
-0.0045649114
-0.0037499554
-0.0030412957
-0.0024329331
-0.0019104357
-0.0014896175
-0.0011054853
-0.00092508373
-0.00047527704
-0.0010027299
0.0008965442
-0.15927857
-0.15719083
-0.15473918
-0.15109779
-0.1468345
-0.14231941
-0.13746879
-0.13222631
-0.12667135
-0.12088698
-0.11492315
-0.10882853
-0.10265938
-0.096470569
-0.090311715
-0.084228236
-0.078261584
-0.072448474
-0.066820509
-0.061404222
-0.056221219
-0.051288346
-0.046617932
-0.04221811
-0.03809317
-0.034243941
-0.03066818
-0.027360974
-0.024315138
-0.021521598
-0.01896976
-0.016647862
-0.014543296
-0.012642908
-0.010933271
-0.0094009312
-0.0080326275
-0.0068154811
-0.0057372084
-0.0047861658
-0.0039518697
-0.0032239843
-0.0025959662
-0.0020546341
-0.0016110718
-0.0012114062
-0.00098669253
-0.00055663992
-0.00088857633
0.00065063108
-0.14687229
-0.14420882
-0.14198837
-0.13964632
-0.13659315
-0.13297426
-0.1289669
-0.1245966
-0.11988586
-0.1148908
-0.10966774
-0.10426722
-0.098741325
-0.093142501
-0.08752022
-0.081920431
-0.076385642
-0.070954408
-0.065660842
-0.060534434
-0.05560004
-0.050877939
-0.046383978
-0.042129796
-0.038123112
-0.034368039
-0.030865445
-0.027613313
-0.024607125
-0.02184023
-0.019304217
-0.016989261
-0.014884457
-0.012978131
-0.011258125
-0.0097120566
-0.0083275583
-0.00709248
-0.0059951074
-0.005024246
-0.0041696566
-0.0034213138
-0.00277221
-0.0022103166
-0.0017423015
-0.0013245873
-0.0010544186
-0.00063893747
-0.00078195502
0.00041016038
-0.13367856
-0.13129068
-0.12951372
-0.12811628
-0.12606319
-0.12330572
-0.12010943
-0.11656179
-0.11266268
-0.10844297
-0.10395686
-0.099255595
-0.094386267
-0.089396846
-0.08433534
-0.079247223
-0.074174942
-0.069157718
-0.064231141
-0.059426816
-0.054772165
-0.05029037
-0.046000405
-0.041917156
-0.038051618
-0.034411138
-0.030999708
-0.02781829
-0.024865154
-0.022136231
-0.01962546
-0.017325141
-0.015226259
-0.013318802
-0.011592057
-0.010034878
-0.0086359395
-0.0073839552
-0.0062678989
-0.005277124
-0.0044017267
-0.0036320377
-0.002960694
-0.0023766905
-0.0018827531
-0.0014444141
-0.0011285297
-0.00072112928
-0.00068867254
0.00018418717
-0.12039324
-0.11867747
-0.11746215
-0.11675837
-0.11549748
-0.11352039
-0.1110803
-0.10829072
-0.10514874
-0.1016683
-0.09789518
-0.093877944
-0.089659974
-0.085283824
-0.080793403
-0.076232501
-0.071642642
-0.067062655
-0.062528498
-0.058072894
-0.053724991
-0.04951017
-0.045449958
-0.041562045
-0.037860378
-0.034355321
-0.031053872
-0.027959923
-0.025074551
-0.022396334
-0.019921672
-0.017645115
-0.015559685
-0.013657189
-0.011928513
-0.010363902
-0.0089532179
-0.0076861719
-0.0065525492
-0.005542356
-0.0046461248
-0.0038545958
-0.0031601814
-0.0025527577
-0.002031701
-0.0015702295
-0.0012091843
-0.00080253935
-0.00061390929
-1.8712124e-05
-0.1075322
-0.10654266
-0.10589843
-0.10572707
-0.1050904
-0.10379064
-0.10203266
-0.099928097
-0.097477017
-0.094684126
-0.091585045
-0.088222474
-0.084635117
-0.080860848
-0.076938908
-0.072909238
-0.06881122
-0.064682448
-0.060558284
-0.05647157
-0.052452267
-0.048527144
-0.04471959
-0.041049521
-0.037533373
-0.03418417
-0.031011659
-0.028022492
-0.025220463
-0.022606768
-0.020180288
-0.017937888
-0.015874722
-0.013984525
-0.012259911
-0.010692646
-0.0092739122
-0.0079945442
-0.0068452596
-0.0058168246
-0.0049003141
-0.0040869393
-0.0033690329
-0.0027372186
-0.0021881797
-0.0017013125
-0.0012963611
-0.0008829399
-0.00056150718
-0.00019154364
-0.095361886
-0.095001415
-0.094868271
-0.095119692
-0.094978208
-0.09424901
-0.09308775
-0.091590416
-0.089758706
-0.087592448
-0.085117838
-0.082370093
-0.079382375
-0.076187335
-0.07281952
-0.06931466
-0.065708533
-0.062036371
-0.058332104
-0.054627823
-0.050953407
-0.047336184
-0.043800657
-0.040368311
-0.037057512
-0.033883484
-0.030858356
-0.027991266
-0.025288531
-0.022753842
-0.0203885
-0.018191678
-0.016160689
-0.014291262
-0.012577824
-0.011013762
-0.0095916868
-0.0083036701
-0.007141473
-0.0060967252
-0.0051611501
-0.0043264987
-0.0035851754
-0.0029284432
-0.0023509617
-0.001836857
-0.0013898093
-0.00096249746
-0.00053344669
-0.00032983921
-0.084010937
-0.084140854
-0.084424366
-0.085008769
-0.085258422
-0.084998015
-0.084344117
-0.083373649
-0.082087283
-0.080481613
-0.078574812
-0.076394319
-0.073967195
-0.071320613
-0.068483897
-0.065488259
-0.062365563
-0.059147675
-0.055866119
-0.052551433
-0.049232624
-0.045936778
-0.042688756
-0.039510924
-0.036422967
-0.033441778
-0.030581425
-0.027853174
-0.025265582
-0.022824632
-0.020533908
-0.018394808
-0.016406773
-0.014567537
-0.012873376
-0.011319365
-0.0098996217
-0.0086075467
-0.0074360408
-0.006377692
-0.0054249738
-0.004570251
-0.0038061491
-0.0031244998
-0.0025185767
-0.0019759595
-0.0014890186
-0.0010416373
-0.00052956954
-0.00043231137
-0.073532494
-0.074019572
-0.07461795
-0.075453198
-0.076004448
-0.076119063
-0.075884509
-0.075360204
-0.074544241
-0.073430442
-0.072030257
-0.070363798
-0.068451913
-0.066316199
-0.063980614
-0.061471401
-0.058816144
-0.056043012
-0.053180364
-0.05025637
-0.047298421
-0.044332637
-0.041383508
-0.038473591
-0.035623255
-0.032850493
-0.030170813
-0.027597186
-0.025140063
-0.022807442
-0.020604982
-0.018536162
-0.016602459
-0.014803563
-0.013137597
-0.011601343
-0.010190477
-0.0088997915
-0.0077234035
-0.0066549421
-0.0056877232
-0.0048148012
-0.0040291668
-0.0033231893
-0.0026893312
-0.0021175922
-0.001593195
-0.0011208514
-0.00054762077
-0.00050104304
-0.06393345
-0.064666601
-0.065486975
-0.06649823
-0.06727207
-0.067677022
-0.067778751
-0.067622167
-0.06720253
-0.066511193
-0.065554002
-0.064344549
-0.062897775
-0.061229828
-0.059359363
-0.057307551
-0.055097356
-0.052752903
-0.050299038
-0.047760941
-0.045163698
-0.042531787
-0.039888661
-0.037256399
-0.034655416
-0.032104218
-0.029619218
-0.027214624
-0.024902378
-0.022692159
-0.020591433
-0.018605551
-0.016737882
-0.014989971
-0.013361733
-0.011851643
-0.010456945
-0.0091738597
-0.007997775
-0.0069234268
-0.0059450542
-0.0050564757
-0.0042511802
-0.0035220833
-0.0028613276
-0.0022605671
-0.0017012469
-0.0012004946
-0.00058363448
-0.00054109729
-0.05519498
-0.056086729
-0.057051273
-0.05817351
-0.059101181
-0.059721645
-0.060083931
-0.0602214
-0.060126964
-0.05979001
-0.059211825
-0.05840045
-0.057365524
-0.05611813
-0.054671886
-0.05304302
-0.051249822
-0.049312138
-0.047251002
-0.045088259
-0.042846164
-0.040546961
-0.038212455
-0.035863633
-0.033520345
-0.031201015
-0.028922415
-0.026699484
-0.024545212
-0.022470575
-0.020484525
-0.018594026
-0.01680413
-0.015118095
-0.013537522
-0.01206252
-0.010691879
-0.0094232501
-0.0082533227
-0.0071779861
-0.0061924686
-0.0052914228
-0.0044689559
-0.0037185703
-0.0030324886
-0.0024035084
-0.0018117949
-0.0012806223
-0.00063260575
-0.00055956931
-0.047282805
-0.048265967
-0.049312673
-0.050492389
-0.051516057
-0.052287737
-0.05284372
-0.053208367
-0.053372993
-0.053325685
-0.053064208
-0.052592084
-0.051914439
-0.051037888
-0.049971476
-0.048726814
-0.047317688
-0.045759672
-0.044069841
-0.042266465
-0.040368648
-0.038395951
-0.036368016
-0.034304196
-0.032223206
-0.030142829
-0.028079644
-0.026048807
-0.024063883
-0.022136722
-0.020277394
-0.018494164
-0.01679352
-0.015180227
-0.013657427
-0.012226758
-0.010888493
-0.0096416862
-0.0084843296
-0.0074134908
-0.006425436
-0.0055157138
-0.0046791542
-0.0039099088
-0.00320059
-0.0025448428
-0.0019232145
-0.0013609075
-0.00068930773
-0.00056426805
-0.040152504
-0.041176762
-0.042258152
-0.0434535
-0.04452642
-0.045395794
-0.046088269
-0.046621336
-0.046985468
-0.047168152
-0.047164634
-0.046974946
-0.04660058
-0.046044417
-0.045311543
-0.044409451
-0.043347775
-0.042138025
-0.040793379
-0.039328458
-0.037759032
-0.036101705
-0.034373574
-0.032591907
-0.030773802
-0.028935886
-0.027094027
-0.025263091
-0.023456734
-0.021687236
-0.019965382
-0.018300389
-0.016699875
-0.015169871
-0.013714862
-0.01233787
-0.011040543
-0.0098232779
-0.0086853377
-0.0076249691
-0.0066395042
-0.0057254363
-0.0048784053
-0.0040932837
-0.0033633029
-0.0026828182
-0.0020337111
-0.0014406491
-0.00074905926
-0.00056234794
-0.033753996
-0.034782861
-0.035863936
-0.037043679
-0.038129548
-0.039053523
-0.039835052
-0.040486498
-0.040998146
-0.041357509
-0.041558223
-0.041597806
-0.041474998
-0.041189726
-0.040743833
-0.040141304
-0.03938812
-0.038492098
-0.037462757
-0.036311175
-0.035049775
-0.033692071
-0.032252394
-0.030745605
-0.0291868
-0.027591017
-0.025972953
-0.02434671
-0.022725569
-0.021121786
-0.019546445
-0.018009332
-0.016518861
-0.015082038
-0.013704455
-0.012390321
-0.011142521
-0.0099626868
-0.0088512902
-0.0078077282
-0.0068304024
-0.0059167818
-0.0050633815
-0.0042658657
-0.0035182427
-0.0028155468
-0.0021414133
-0.0015188524
-0.00080825282
-0.00055924691
-0.028034894
-0.029042984
-0.030099053
-0.031241039
-0.032312839
-0.03325791
-0.034090388
-0.034818889
-0.035434013
-0.035923801
-0.036281053
-0.03650163
-0.036582341
-0.036520934
-0.036316736
-0.0359709
-0.035486346
-0.03486768
-0.034121144
-0.033254534
-0.032277066
-0.031199194
-0.030032405
-0.028788977
-0.027481742
-0.026123818
-0.024728353
-0.023308275
-0.021876058
-0.020443508
-0.019021589
-0.017620264
-0.016248386
-0.014913613
-0.013622367
-0.012379817
-0.011189895
-0.01005533
-0.0089777011
-0.0079574941
-0.006994156
-0.0060861384
-0.0052308729
-0.0044248729
-0.0036630245
-0.0029410655
-0.0022444651
-0.0015943455
-0.00086453026
-0.00055819053
-0.022942783
-0.023913456
-0.024928129
-0.026017706
-0.027056345
-0.027997468
-0.02885132
-0.029623816
-0.030306222
-0.030887472
-0.031360133
-0.031719122
-0.03196003
-0.032079134
-0.032073942
-0.031943447
-0.03168813
-0.031309947
-0.03081233
-0.030200172
-0.029479757
-0.02865865
-0.027745552
-0.026750131
-0.02568282
-0.024554609
-0.023376821
-0.022160879
-0.020918088
-0.019659419
-0.018395324
-0.017135562
-0.015889056
-0.014663786
-0.013466698
-0.01230366
-0.011179429
-0.010097653
-0.0090608829
-0.0080705996
-0.0071272382
-0.0062302126
-0.0053778834
-0.0045676493
-0.0037953295
-0.0030574101
-0.0023410992
-0.0016658934
-0.00091662008
-0.00056031876
-0.018427055
-0.019350399
-0.020313807
-0.021342327
-0.022335249
-0.023254589
-0.024107732
-0.024898664
-0.025619528
-0.026260377
-0.026813984
-0.027274877
-0.027638014
-0.027898795
-0.028053534
-0.028099689
-0.028035913
-0.027862081
-0.027579334
-0.027190113
-0.026698139
-0.026108369
-0.025426908
-0.024660901
-0.023818388
-0.022908145
-0.021939503
-0.020922154
-0.019865951
-0.018780715
-0.017676043
-0.016561135
-0.015444642
-0.014334522
-0.01323794
-0.012161176
-0.011109568
-0.010087473
-0.0090982478
-0.0081442386
-0.0072267812
-0.0063462
-0.0055017664
-0.0046917744
-0.0039129939
-0.0031627021
-0.0024296928
-0.0017322887
-0.00096397168
-0.00056526984
-0.014440005
-0.015311186
-0.016218478
-0.017181997
-0.018121916
-0.01900762
-0.019844372
-0.02063478
-0.021371959
-0.022047182
-0.022653722
-0.023186121
-0.023639144
-0.024007798
-0.024287715
-0.024475365
-0.024568128
-0.024564342
-0.024463377
-0.024265698
-0.023972891
-0.023587661
-0.0231138
-0.022556127
-0.021920406
-0.021213229
-0.020441889
-0.019614221
-0.018738447
-0.017822999
-0.016876348
-0.015906836
-0.014922524
-0.013931041
-0.01293946
-0.01195419
-0.010980889
-0.010024396
-0.009088677
-0.00817679
-0.0072908517
-0.0064320153
-0.0056004139
-0.0047952165
-0.0040141318
-0.0032552546
-0.0025088171
-0.0017924204
-0.0010063723
-0.000571924
-0.010938209
-0.011756075
-0.012606105
-0.01350421
-0.014387924
-0.015232921
-0.016042867
-0.016819371
-0.017556525
-0.018246836
-0.018884243
-0.019463567
-0.019979695
-0.020427595
-0.020802621
-0.021100703
-0.021318416
-0.021453048
-0.021502683
-0.021466278
-0.021343721
-0.021135861
-0.020844516
-0.020472459
-0.020023382
-0.019501825
-0.018913099
-0.018263168
-0.017558538
-0.016806109
-0.016013032
-0.015186564
-0.014333914
-0.013462108
-0.012577849
-0.011687405
-0.010796493
-0.0099101981
-0.0090328889
-0.0081681562
-0.0073187554
-0.0064865585
-0.0056724826
-0.0048765226
-0.0040972887
-0.003333697
-0.0025772987
-0.0018453346
-0.0010436899
-0.00057902932
-0.0078826659
-0.0086488176
-0.0094432491
-0.010278252
-0.0111058
-0.011906898
-0.01268399
-0.013437935
-0.014163752
-0.014855125
-0.015506728
-0.016113815
-0.016671595
-0.017175238
-0.017620116
-0.018001956
-0.018316908
-0.018561615
-0.018733295
-0.018829827
-0.018849819
-0.018792663
-0.018658569
-0.018448587
-0.018164601
-0.017809314
-0.017386195
-0.01689942
-0.016353788
-0.01575462
-0.015107646
-0.014418882
-0.013694502
-0.012940708
-0.012163603
-0.011369067
-0.010562642
-0.0097494287
-0.0089339887
-0.0081202593
-0.0073114741
-0.0065100935
-0.0057177157
-0.0049350865
-0.0041616567
-0.0033971435
-0.0026343188
-0.0018903143
-0.0010757914
-0.00058557192
-0.0052398443
-0.0059575507
-0.0066998285
-0.0074758054
-0.0082494417
-0.0090062465
-0.0097477078
-0.010474108
-0.011181299
-0.011864037
-0.012517733
-0.013138144
-0.013720907
-0.014261541
-0.014755628
-0.015198931
-0.015587459
-0.015917525
-0.016185827
-0.016389529
-0.016526332
-0.016594543
-0.016593122
-0.016521728
-0.016380744
-0.016171286
-0.015895194
-0.015555005
-0.015153911
-0.01469569
-0.014184632
-0.013625447
-0.01302316
-0.012383002
-0.011710296
-0.011010344
-0.010288307
-0.0095490964
-0.0087972702
-0.0080369282
-0.0072716177
-0.0065042446
-0.0057369681
-0.0049711891
-0.0042071193
-0.0034452322
-0.0026794319
-0.0019268925
-0.0011025324
-0.00059087125
-0.0029838119
-0.0036580087
-0.0043532609
-0.0050760171
-0.0058001172
-0.0065148195
-0.0072208486
-0.0079180286
-0.0086029297
-0.0092712554
-0.0099190991
-0.010542729
-0.011138247
-0.011701589
-0.012228654
-0.012715396
-0.013157873
-0.013552301
-0.013895121
-0.014183073
-0.014413266
-0.014583244
-0.014691049
-0.014735272
-0.014715098
-0.01463034
-0.014481459
-0.014269561
-0.013996391
-0.013664302
-0.013276207
-0.012835526
-0.012346106
-0.011812139
-0.011238065
-0.010628471
-0.009987988
-0.0093211771
-0.0086324227
-0.0079258231
-0.0072050825
-0.0064734088
-0.0057333942
-0.0049869842
-0.0042350546
-0.0034787671
-0.0027130635
-0.001955236
-0.0011240802
-0.00059469831
-0.0010886641
-0.0017244561
-0.0023781985
-0.0030539477
-0.0037336263
-0.0044096076
-0.0050820054
-0.0057502663
-0.0064115589
-0.0070623904
-0.007699459
-0.0083195072
-0.0089190888
-0.0094945654
-0.010042196
-0.010558204
-0.01103881
-0.011480284
-0.011878993
-0.01223147
-0.012534473
-0.012785049
-0.012980597
-0.013118929
-0.013198318
-0.013217553
-0.01317597
-0.013073483
-0.012910595
-0.012688399
-0.012408563
-0.012073299
-0.01168532
-0.011247778
-0.010764196
-0.010238383
-0.0096743407
-0.009076167
-0.0084479455
-0.0077936373
-0.0071169669
-0.0064213104
-0.0057095667
-0.0049841094
-0.0042463712
-0.0034981156
-0.0027352159
-0.0019751015
-0.0011401238
-0.00059667545
0.00044166973
-0.00016275536
-0.00078225652
-0.0014191391
-0.0020617165
-0.0027047965
-0.0033479985
-0.0039904697
-0.0046298598
-0.0052633264
-0.00588807
-0.0065012417
-0.0070997948
-0.007680482
-0.0082399123
-0.0087745942
-0.0092809657
-0.0097554285
-0.010194392
-0.010594325
-0.010951812
-0.011263605
-0.011526689
-0.011738338
-0.011896174
-0.01199822
-0.012042954
-0.012029347
-0.011956899
-0.011825659
-0.011636235
-0.011389789
-0.011088024
-0.010733141
-0.010327798
-0.0098750441
-0.0093782423
-0.0088409843
-0.00826699
-0.0076600013
-0.0070236671
-0.0063614276
-0.005676378
-0.0049712093
-0.0042477982
-0.0035084084
-0.0027497196
-0.0019892732
-0.001152614
-0.00059782853
0.0016511246
0.0010725647
0.00048113661
-0.00012385907
-0.00073570016
-0.0013511305
-0.0019693917
-0.0025893847
-0.0032091232
-0.0038262721
-0.0044384306
-0.0050430806
-0.0056375058
-0.0062187896
-0.0067838475
-0.0073294542
-0.0078522657
-0.0083488456
-0.0088157004
-0.0092493205