/*--------------------------------*- C++ -*----------------------------------*\
  =========                 |
  \\      /  F ield         | OpenFOAM: The Open Source CFD Toolbox
   \\    /   O peration     | Website:  https://openfoam.org
    \\  /    A nd           | Version:  6
     \\/     M anipulation  |
\*---------------------------------------------------------------------------*/
FoamFile
{
    version     2.0;
    format      ascii;
    class       volVectorField;
    location    "133";
    object      U_0;
}
// * * * * * * * * * * * * * * * * * * * * * * * * * * * * * * * * * * * * * //

dimensions      [0 1 -1 0 0 0 0];

internalField   nonuniform List<vector> 
9200
(
(0.001039401 0.0014199532 -5.9202263e-20)
(0.013676306 -0.002058493 4.6042912e-20)
(0.038313684 -0.0058667895 -3.8502034e-20)
(0.072275311 -0.0097638229 -6.0258201e-20)
(0.11376603 -0.013490445 1.8827125e-20)
(0.16158265 -0.016606175 3.2744142e-20)
(0.21467376 -0.018817902 -1.2268122e-20)
(0.2720689 -0.019974609 9.26895e-21)
(0.33285961 -0.020012043 1.6803549e-20)
(0.39616743 -0.018929976 1.4848196e-21)
(0.46112008 -0.016780848 -2.145653e-20)
(0.52684193 -0.013658877 2.0670198e-20)
(0.59245624 -0.0096892624 -4.0422505e-20)
(0.65709731 -0.0050171678 -2.1134122e-20)
(0.71993109 0.00020403312 5.9047107e-21)
(0.78018168 0.0058224187 -2.5131971e-20)
(0.83717746 0.011710976 2.5217447e-20)
(0.89047573 0.017916501 2.2243633e-20)
(0.93967769 0.024571213 -2.9921329e-22)
(0.98205878 0.028291009 -1.6690812e-21)
(0.0052522736 -0.0013463233 -1.7059474e-20)
(0.026962855 -0.008989205 3.9748017e-20)
(0.061670827 -0.014810055 2.3576477e-20)
(0.10629604 -0.019172663 -1.1569838e-19)
(0.15873729 -0.022214489 -1.272719e-20)
(0.21753569 -0.023721272 7.3297583e-20)
(0.28137571 -0.023595775 -3.5476666e-20)
(0.34900935 -0.021869734 -8.3906191e-21)
(0.41924313 -0.018646384 3.4287816e-20)
(0.49091393 -0.014081794 -4.3259952e-20)
(0.56287734 -0.0083770027 -3.0338776e-20)
(0.63401398 -0.0017677529 7.1922206e-20)
(0.70324921 0.0054871191 3.8294453e-20)
(0.76958206 0.013117228 -6.7977371e-20)
(0.83211893 0.020850535 1.4623893e-20)
(0.89010698 0.028418001 -3.6733902e-20)
(0.94297581 0.035567799 -1.3777342e-20)
(0.99043888 0.042138827 7.0975958e-20)
(1.0323625 0.047713058 2.9642699e-20)
(1.066941 0.049137268 -8.3479094e-20)
(0.010858566 -0.0040424844 3.6773697e-20)
(0.043953902 -0.015431298 2.5047515e-21)
(0.090516366 -0.022552625 2.2341887e-20)
(0.14711284 -0.026497804 9.8117465e-22)
(0.21134455 -0.027886835 -4.0774263e-20)
(0.28147028 -0.026795736 1.8576516e-20)
(0.35587362 -0.023383428 1.3420407e-20)
(0.43299389 -0.017922314 -5.032809e-20)
(0.51132917 -0.010736506 5.7262333e-20)
(0.58943107 -0.00218482 1.4256845e-20)
(0.66591456 0.0073468719 -5.4301281e-20)
(0.73948615 0.017459123 -1.8237643e-20)
(0.80898206 0.0277553 9.0591297e-21)
(0.87340891 0.03785787 2.344505e-20)
(0.93197997 0.047422486 -1.1362693e-20)
(0.98414 0.056147244 2.7878117e-20)
(1.0295802 0.06378726 -2.0188498e-20)
(1.0682705 0.070202282 -7.0124701e-20)
(1.1003379 0.075117068 -2.3796707e-20)
(1.1249167 0.076638747 4.8660353e-20)
(0.017957408 -0.0064222459 2.4508164e-20)
(0.064777636 -0.020695049 5.1039556e-20)
(0.12485346 -0.028061219 1.9881818e-20)
(0.19447142 -0.030464532 1.2990155e-20)
(0.2709517 -0.029095386 1.7275802e-20)
(0.35225182 -0.024389591 -4.7720495e-20)
(0.43643504 -0.016826647 -2.5647045e-20)
(0.52162433 -0.0069774075 0)
(0.60603375 0.0045662262 1.3920823e-20)
(0.68799233 0.017210846 -5.8524758e-21)
(0.76598081 0.030372941 -9.7935957e-20)
(0.83868037 0.043498537 -1.5774929e-20)
(0.90502131 0.056085388 6.510407e-20)
(0.9642218 0.067702752 4.8432598e-22)
(1.0158095 0.07800616 -1.5725785e-21)
(1.0596214 0.086745051 2.1957809e-20)
(1.0957829 0.093770289 -5.2648207e-21)
(1.1246854 0.099063192 -6.103062e-20)
(1.1468698 0.10259474 -4.5851969e-20)
(1.1623005 0.10341132 6.9521316e-20)
(0.026579674 -0.0082057785 -3.9194366e-21)
(0.089344826 -0.024033767 -5.1256611e-21)
(0.16430896 -0.030265361 5.6599745e-20)
(0.24758328 -0.02981047 1.8539427e-20)
(0.33624436 -0.024513537 -3.1955268e-20)
(0.42795467 -0.015240417 1.2163917e-20)
(0.52047666 -0.0028519662 2.6403068e-21)
(0.61166818 0.01173644 3.3609486e-20)
(0.69955219 0.027639423 5.6600057e-21)
(0.78237382 0.044027968 -1.3204931e-20)
(0.85865976 0.060146818 6.0154851e-20)
(0.92727495 0.075339437 -5.8009966e-20)
(0.98746263 0.089071676 -1.3216779e-19)
(1.0388589 0.10094766 -5.5773772e-21)
(1.0814781 0.11071554 8.3151936e-20)
(1.1156709 0.1182623 0)
(1.1420599 0.12360388 1.0119083e-20)
(1.1614716 0.12688841 -1.5459991e-20)
(1.1748224 0.12829636 -8.5995896e-21)
(1.1826715 0.12744663 2.0992487e-20)
(0.036667229 -0.0090896705 -5.4309201e-21)
(0.11731609 -0.024685607 4.3578987e-21)
(0.20812036 -0.02814052 -8.7630324e-21)
(0.30515942 -0.023415351 2.8472559e-20)
(0.40533849 -0.013076023 -2.9392862e-20)
(0.50607523 0.001522155 -1.6927148e-20)
(0.60490925 0.019094647 3.7364451e-20)
(0.69955444 0.038364716 4.7595581e-21)
(0.78800916 0.058167039 -2.4436396e-20)
(0.86863955 0.077482305 6.9868301e-20)
(0.94024537 0.095457822 5.2384904e-22)
(1.0021012 0.11143059 -8.044537e-20)
(1.0539625 0.12494176 0)
(1.0960327 0.13573617 3.9542682e-20)
(1.1288973 0.1437469 5.5236845e-21)
(1.1534327 0.1490672 -7.7567434e-20)
(1.1707036 0.1519172 -1.958718e-20)
(1.1818666 0.15262155 -1.2467797e-20)
(1.1880632 0.15152375 -1.4709589e-20)
(1.1901497 0.14858245 4.0421043e-20)
(0.048059256 -0.0087674876 -1.7278029e-20)
(0.14808425 -0.02193221 -2.219884e-21)
(0.25514262 -0.020798113 3.0380649e-20)
(0.36546653 -0.010413097 3.7484482e-20)
(0.47590761 0.0059012736 -1.9944856e-20)
(0.5837467 0.02626898 -6.9163568e-20)
(0.68644643 0.048976857 -2.7996076e-20)
(0.78176703 0.072417388 7.8929938e-20)
(0.86790724 0.095211999 8.5779683e-21)
(0.94359459 0.11624902 -2.4873704e-20)
(1.0081313 0.13469754 1.3642285e-20)
(1.0613924 0.15001465 -4.3195324e-21)
(1.1037745 0.1619355 0)
(1.1361024 0.17044298 2.7203814e-20)
(1.1595093 0.17572159 -7.9323393e-20)
(1.1753065 0.17810199 -3.1475918e-20)
(1.1848611 0.17800623 8.1055584e-20)
(1.189496 0.17590738 -4.2970614e-21)
(1.1904065 0.17225335 3.5561442e-21)
(1.1885114 0.16719061 2.7111942e-20)
(0.060485706 -0.0069574287 -3.2414741e-20)
(0.18077904 -0.01517054 -8.1624749e-20)
(0.30389144 -0.0075837105 2.5797194e-21)
(0.42642849 0.0097031797 7.0162255e-20)
(0.54535513 0.032631389 6.2424801e-20)
(0.65798524 0.058819878 -7.1574978e-20)
(0.76191353 0.086176317 -2.8267271e-22)
(0.85518794 0.11285206 8.5523433e-20)
(0.93645868 0.13737803 4.8828551e-20)
(1.0050467 0.15869322 -5.421902e-20)
(1.0609408 0.17613498 -9.2335246e-20)
(1.1047293 0.1894127 -3.1590185e-21)
(1.1374807 0.1985584 4.2128349e-20)
(1.1605919 0.20385732 -6.6057071e-21)
(1.175629 0.20576874 -1.286893e-20)
(1.1841817 0.20484755 1.9691016e-20)
(1.1877465 0.20167715 4.3881131e-20)
(1.1876489 0.1968239 -4.3859928e-20)
(1.1849987 0.19077673 -1.0232326e-19)
(1.1806281 0.18377156 2.4567227e-20)
(0.073537735 -0.0034330108 -3.4979945e-20)
(0.21422834 -0.0039891052 -1.738868e-19)
(0.35251891 0.011839316 8.2103805e-20)
(0.48563111 0.037018316 9.2768126e-20)
(0.6108576 0.066835561 5.7970948e-20)
(0.72577161 0.098481192 8.6107827e-21)
(0.82835276 0.12959694 -1.0624097e-19)
(0.91719495 0.15824259 0)
(0.99163251 0.18302792 -6.8749367e-20)
(1.0517571 0.20311169 -1.5202599e-20)
(1.0983433 0.21814804 5.4704051e-20)
(1.1327055 0.22821005 1.0973505e-20)
(1.1565154 0.23369162 -4.5614347e-20)
(1.171611 0.23519828 -4.9081882e-20)
(1.1798243 0.23344197 2.4287962e-20)
(1.1828487 0.22915168 4.4823412e-20)
(1.1821523 0.22300815 -5.5601046e-20)
(1.1789393 0.21560637 -1.0751242e-19)
(1.1741499 0.20742027 -3.1513595e-21)
(1.1684597 0.19871673 2.7046703e-20)
(0.086651022 0.0019613851 -3.5449626e-21)
(0.24696178 0.011816654 8.7913704e-20)
(0.39884989 0.037492396 -1.6479055e-20)
(0.54040792 0.071218538 -8.4309833e-20)
(0.66950293 0.10778913 4.516472e-20)
(0.7842239 0.14411564 4.9175743e-20)
(0.88319408 0.17775684 5.5357298e-21)
(0.96578354 0.20688495 -9.9503403e-20)
(1.0321811 0.23038793 -2.504903e-21)
(1.0833376 0.24781526 5.0504072e-20)
(1.1208116 0.25926253 5.9855397e-21)
(1.1465602 0.2652355 -1.9717416e-20)
(1.1627149 0.26650443 -7.5705408e-20)
(1.1713804 0.26396512 -6.2554509e-21)
(1.1744799 0.25852301 4.3533793e-20)
(1.1736582 0.25100944 3.7022384e-20)
(1.1702415 0.24213237 1.9793612e-20)
(1.1652433 0.23245705 -5.2995499e-20)
(1.1594043 0.22240237 1.2957471e-20)
(1.1532279 0.21223609 8.2659937e-20)
(-0.0012932728 0.0014346725 -1.1234423e-21)
(-0.0047460005 0.003187441 2.0647094e-21)
(-0.010771446 0.0041359361 8.7954093e-22)
(-0.017754425 0.0045395689 -2.4410972e-21)
(-0.024740502 0.0045654473 -1.4115133e-21)
(-0.031299817 0.0043260648 1.5460248e-21)
(-0.037161582 0.0039035583 -6.8701752e-21)
(-0.042147717 0.0033577348 -5.957378e-21)
(-0.046158059 0.0027313864 1.1172148e-20)
(-0.049146469 0.0020548271 -9.7428834e-21)
(-0.051100917 0.0013492878 -1.9833026e-22)
(-0.052030677 0.00062939964 3.6674013e-21)
(-0.051957928 -9.4922005e-05 -6.3296357e-22)
(-0.050912015 -0.00081697374 2.2819099e-20)
(-0.048925841 -0.0015318995 3.0401191e-22)
(-0.046035319 -0.002235241 -4.088355e-20)
(-0.042281673 -0.0029223478 7.5386984e-21)
(-0.037703201 -0.0035911319 2.3864526e-20)
(-0.032308318 -0.0042400942 -4.3853166e-20)
(-0.026156436 -0.0048212352 -2.7739718e-20)
(-0.0016522138 0.0041809021 -5.3716639e-21)
(-0.0053975243 0.009268212 1.0865498e-20)
(-0.011218594 0.012007534 -1.0191649e-20)
(-0.017658153 0.013153856 3.9230554e-21)
(-0.023856596 0.013195498 4.8122269e-21)
(-0.029433507 0.012462796 7.1325199e-22)
(-0.034152525 0.011197067 -2.2509786e-20)
(-0.037860585 0.0095739291 -2.0370513e-21)
(-0.040474495 0.0077189957 2.0163809e-20)
(-0.041959093 0.0057212132 -5.0474284e-21)
(-0.042309081 0.0036428199 -2.1762897e-20)
(-0.041537412 0.001526639 4.8973873e-21)
(-0.039667717 -0.00059840986 2.2635742e-20)
(-0.036728997 -0.0027128979 1.0308548e-20)
(-0.032751845 -0.0048028605 2.185464e-20)
(-0.027768859 -0.0068557163 -1.9771048e-20)
(-0.021824341 -0.0088584662 -2.1673299e-20)
(-0.014965656 -0.010804512 2.1185001e-20)
(-0.0071282207 -0.012679332 2.6810831e-20)
(0.0018753015 -0.014317597 1.5855024e-20)
(-0.0023034473 0.0065602868 -4.3569168e-21)
(-0.0065392715 0.014480307 -5.6387768e-21)
(-0.011892211 0.018710678 3.0723502e-22)
(-0.017211204 0.020428317 1.0959687e-21)
(-0.021819261 0.020400447 6.6919226e-21)
(-0.025431161 0.019151766 1.0665297e-20)
(-0.027877337 0.017066357 -3.7228102e-21)
(-0.029053344 0.014423817 -1.8896405e-20)
(-0.028909064 0.011424346 6.5414017e-21)
(-0.027431011 0.0082098563 1.2862737e-20)
(-0.02462759 0.0048796815 5.8341775e-21)
(-0.020519881 0.0015020955 1.8159343e-20)
(-0.015135633 -0.0018770578 1.7296161e-21)
(-0.0085049004 -0.0052274966 -3.3865008e-20)
(-0.00065622656 -0.0085279164 1.2020532e-21)
(0.0083818741 -0.011759477 -2.2139512e-20)
(0.018557939 -0.014904528 -2.4466718e-20)
(0.029803491 -0.017954253 4.5820488e-20)
(0.04230654 -0.020855689 2.5349806e-20)
(0.056740454 -0.023248408 1.2243004e-22)
(-0.0031290503 0.0083690356 -5.2833681e-21)
(-0.0078964496 0.018336645 -8.481691e-21)
(-0.012439053 0.023587967 4.3593458e-21)
(-0.016026603 0.025609816 4.1463953e-21)
(-0.018235076 0.025382882 2.0105918e-21)
(-0.018912668 0.023589425 7.3210849e-21)
(-0.017984677 0.020730333 9.3125871e-21)
(-0.015416593 0.017170387 -1.3511499e-21)
(-0.011206831 0.013171268 -1.1482082e-20)
(-0.0053748951 0.0089188253 -2.907224e-20)
(0.0020485956 0.0045432669 6.1900378e-23)
(0.011027163 0.00013407275 4.0698345e-20)
(0.021523075 -0.0042492609 -1.8383395e-20)
(0.033498923 -0.0085679705 -1.2296254e-20)
(0.046921834 -0.012796011 5.5347395e-22)
(0.061761694 -0.016912405 3.230312e-20)
(0.077954918 -0.020902309 -1.4829808e-20)
(0.095394502 -0.02476411 -5.3339983e-20)
(0.11440105 -0.028380552 4.5765699e-20)
(0.1363484 -0.031074025 3.3013682e-20)
(-0.0039704357 0.0094658011 -6.8788575e-22)
(-0.0090917073 0.020487928 -1.2534863e-20)
(-0.012364517 0.026159245 -3.4144934e-20)
(-0.013552556 0.028143488 -5.7242428e-21)
(-0.012533201 0.027555127 -3.6223018e-21)
(-0.0093166039 0.025188139 6.3051745e-21)
(-0.0039454164 0.02162743 -4.6462461e-21)
(0.0035264915 0.017298914 -8.8071172e-21)
(0.013037347 0.012508635 2.1899948e-20)
(0.024521959 0.0074742488 5.0567535e-21)
(0.037916475 0.0023486284 -2.5290616e-20)
(0.053158631 -0.002763146 1.10784e-20)
(0.070188333 -0.0077913274 0)
(0.088948357 -0.012691851 1.2089727e-20)
(0.10938756 -0.017437568 -9.7017429e-21)
(0.1314599 -0.022010651 -1.4337323e-20)
(0.15507696 -0.026409513 -1.5738552e-21)
(0.18007092 -0.030660406 -2.2182104e-21)
(0.20685719 -0.034577644 4.6147645e-20)
(0.23766788 -0.037021099 -1.0470363e-20)
(-0.0046451244 0.0097809266 -7.5357317e-21)
(-0.0096772903 0.020748 2.4516654e-20)
(-0.01106439 0.026161109 -1.0499467e-20)
(-0.0090967758 0.027724559 -2.7469564e-20)
(-0.0039795629 0.026601767 -2.7548414e-20)
(0.0040964755 0.023648424 -1.4921722e-20)
(0.01495461 0.019496403 -6.9060155e-22)
(0.028436896 0.014604573 5.5500292e-21)
(0.044404042 0.009303228 1.9616067e-20)
(0.062731658 0.0038281049 7.3531616e-21)
(0.083305777 -0.0016551631 -7.1862924e-21)
(0.10602077 -0.0070327491 -2.0102361e-21)
(0.13077573 -0.012229716 -3.8192144e-20)
(0.15747199 -0.017200483 -1.2693792e-20)
(0.18601498 -0.021920582 1.8750865e-20)
(0.21631521 -0.026380688 -2.1021959e-20)
(0.24823615 -0.030603322 -8.9731738e-21)
(0.2815231 -0.034671843 3.0440809e-20)
(0.31661198 -0.038366198 5.0472678e-20)
(0.35665567 -0.03996562 3.3560157e-21)
(-0.0049617911 0.0093140514 1.6783435e-20)
(-0.009166287 0.019097798 1.4468054e-20)
(-0.0078593205 0.02356345 5.1145958e-20)
(-0.001858385 0.024328995 2.3388213e-20)
(0.0082960308 0.02252378 1.8251958e-22)
(0.022222442 0.019014311 -3.9388835e-20)
(0.039598177 0.014440781 -2.4314097e-20)
(0.060148911 0.0092661134 1.0465911e-20)
(0.083640431 0.0038228838 1.4401722e-20)
(0.10986835 -0.001651748 -1.311382e-20)
(0.13864767 -0.0069915683 -4.4039162e-20)
(0.16980416 -0.012083521 2.9618808e-20)
(0.20316694 -0.016854953 2.0020744e-20)
(0.23856283 -0.021264913 -2.7551454e-20)
(0.27581617 -0.02529745 1.1650276e-20)
(0.31475249 -0.028958349 2.4197889e-20)
(0.35515037 -0.032304373 8.0725013e-21)
(0.39663932 -0.035508141 -1.1764384e-20)
(0.43958299 -0.038394261 -1.4190421e-20)
(0.48799163 -0.038636176 5.8729692e-21)
(-0.0047307896 0.0081237091 1.109394e-20)
(-0.0070585818 0.015671219 -2.3352955e-20)
(-0.002029245 0.01856205 8.6201047e-21)
(0.0090328016 0.018216193 3.3588279e-20)
(0.025256854 0.01565105 5.2124807e-20)
(0.04606709 0.011695421 2.0276692e-20)
(0.070985578 0.0069606771 -5.8639938e-21)
(0.099603348 0.0018825754 -1.2286384e-20)
(0.13157073 -0.0032276812 -6.2058138e-21)
(0.16657788 -0.0081502531 3.424115e-20)
(0.2043369 -0.012734034 -4.5105045e-21)
(0.24456799 -0.016880022 -1.6643475e-20)
(0.28698834 -0.020529648 -1.9693753e-20)
(0.33130415 -0.023657505 -4.7444232e-20)
(0.37720929 -0.02626676 2.3238947e-20)
(0.42439294 -0.028389227 -1.4096143e-20)
(0.4725055 -0.030129129 2.5993724e-20)
(0.52104246 -0.031784843 2.1041077e-20)
(0.57022071 -0.033352486 -8.5571187e-20)
(0.62471638 -0.032060811 -1.0802537e-22)
(-0.0037710498 0.0063146549 2.1925224e-20)
(-0.0028656942 0.010735085 -2.6165769e-20)
(0.0071423282 0.011564077 -4.5013669e-20)
(0.024450674 0.0099248625 -2.7254017e-20)
(0.047871567 0.0066520971 -2.0440042e-21)
(0.076629747 0.0024903159 1.3050192e-20)
(0.11007815 -0.0020157966 -2.8337819e-21)
(0.1476539 -0.0064884115 1.8118683e-20)
(0.18886325 -0.010664122 8.8686255e-21)
(0.23325473 -0.014363155 -1.1380267e-20)
(0.28039478 -0.017469802 8.878017e-21)
(0.32984986 -0.019917781 -2.3903486e-20)
(0.38117317 -0.0216798 8.0505781e-21)
(0.43389576 -0.022761109 1.6756566e-20)
(0.4875248 -0.023195671 -2.6395408e-21)
(0.54155311 -0.023048401 1.6619122e-21)
(0.59544188 -0.022471099 -3.1956563e-22)
(0.64852468 -0.021871904 1.9590646e-20)
(0.7008296 -0.021447013 4.0434429e-21)
(0.757459 -0.018501197 -5.7358145e-22)
(-0.0019109899 0.0040273416 2.369231e-20)
(0.0038695743 0.0046764516 5.7160459e-20)
(0.020315664 0.003187823 -4.924462e-20)
(0.045178921 0.00029420162 -9.9454955e-21)
(0.076966132 -0.0034244685 2.0256499e-20)
(0.11469761 -0.0073540009 2.1433883e-21)
(0.15754065 -0.011055474 -2.981539e-20)
(0.20475062 -0.014244763 6.9848542e-21)
(0.25565232 -0.01673866 7.1098605e-21)
(0.3096081 -0.018427801 -2.6254305e-20)
(0.3659904 -0.019261057 1.292748e-21)
(0.42416406 -0.019232945 -3.717446e-20)
(0.48347603 -0.018373404 -3.6341376e-20)
(0.54325118 -0.016739607 6.5684182e-20)
(0.60279413 -0.014408768 5.5628132e-21)
(0.66139528 -0.011477507 -1.518901e-20)
(0.71831464 -0.0081038043 1.9364181e-20)
(0.7727061 -0.0045947807 -9.1889178e-22)
(0.82409564 -0.00097012693 2.0364687e-20)
(0.87622706 0.0043258154 -1.9554507e-20)
(-0.018835705 -0.0050998342 5.8353165e-20)
(-0.010223715 -0.0056350716 1.5783953e-20)
(-0.00021999101 -0.0060690382 -3.5140235e-20)
(0.010824727 -0.0063342795 1.6790598e-20)
(0.022644296 -0.0065122278 0)
(0.035180076 -0.0066302815 0)
(0.048372249 -0.0066911752 -2.2975459e-20)
(0.062141098 -0.0067027514 -1.6503238e-20)
(0.076416211 -0.0066743954 1.9123069e-20)
(0.091138081 -0.0066128959 1.8174486e-20)
(0.10625174 -0.0065234447 1.0524438e-21)
(0.12170537 -0.0064106055 -1.0317884e-20)
(0.1374507 -0.0062783369 8.3271388e-21)
(0.15344248 -0.0061299862 1.8234175e-20)
(0.16963798 -0.0059684168 -5.2276143e-21)
(0.18599654 -0.0057961141 -1.0175196e-20)
(0.2024794 -0.0056152493 -4.3196988e-21)
(0.21904955 -0.0054277315 -4.4258273e-21)
(0.23567157 -0.005235253 7.3668111e-22)
(0.25231157 -0.0050393239 1.2286465e-21)
(0.26893725 -0.0048412995 2.5667548e-21)
(0.28551781 -0.0046423996 6.6541853e-21)
(0.30202407 -0.0044437234 2.4889275e-22)
(0.3184285 -0.0042462605 -3.4516187e-21)
(0.33470527 -0.0040508985 1.5557974e-22)
(0.3508303 -0.0038584291 -5.7712677e-22)
(0.36678136 -0.0036695522 1.2435046e-21)
(0.38253805 -0.0034848805 1.0522779e-21)
(0.39808185 -0.0033049424 -1.2989389e-21)
(0.41339616 -0.0031301862 -1.2218099e-22)
(0.42846626 -0.0029609841 3.5667631e-23)
(0.44327931 -0.0027976362 -3.5191205e-22)
(0.45782434 -0.0026403758 -4.0574506e-22)
(0.47209218 -0.0024893744 5.5475088e-23)
(0.48607543 -0.0023447475 -1.3811422e-22)
(0.49976843 -0.0022065608 -2.2346645e-22)
(0.5131672 -0.0020748369 2.5577043e-22)
(0.52626941 -0.0019495617 2.950907e-22)
(0.53907432 -0.0018306939 -8.320903e-24)
(0.55158308 -0.0017181683 -1.5529977e-22)
(0.5637977 -0.0016119244 3.040506e-23)
(0.57572484 -0.0015118622 -4.0158627e-23)
(0.58736473 -0.0014180533 9.2306658e-23)
(0.59874653 -0.0013301613 2.1953617e-23)
(0.60982452 -0.0012494726 -1.1423551e-22)
(0.62079133 -0.0011727733 -6.7852997e-24)
(0.6311681 -0.0011123107 -5.9785531e-26)
(0.64246939 -0.0010350889 -3.5997152e-24)
(0.6505544 -0.001052086 2.9442815e-23)
(0.66716161 -0.00087701248 3.6085645e-22)
(0.010447104 -0.015018011 -1.2747095e-20)
(0.018181168 -0.016641455 -6.3303514e-20)
(0.027780962 -0.017915898 -3.0542587e-20)
(0.038387201 -0.01867259 3.8476815e-20)
(0.049623382 -0.01918414 1.4662928e-20)
(0.061509395 -0.019530016 -1.8205373e-20)
(0.074015991 -0.01971048 4.6723659e-21)
(0.087066279 -0.019747137 2.5447763e-20)
(0.10059723 -0.019667954 9.1938841e-23)
(0.11455861 -0.0194924 -7.659338e-21)
(0.12890232 -0.019235086 -1.302125e-20)
(0.14358175 -0.018909063 -8.5248022e-21)
(0.15855302 -0.018525749 1.7772784e-20)
(0.17377461 -0.018094801 8.9299647e-21)
(0.18920677 -0.017624503 -1.6522777e-20)
(0.20481132 -0.017122078 -6.0392205e-21)
(0.22055153 -0.016593866 3.2145636e-21)
(0.23639202 -0.016045463 8.3718173e-21)
(0.25229874 -0.015481847 6.9834639e-21)
(0.26823895 -0.01490748 -6.9730483e-21)
(0.28418122 -0.014326377 -3.1687973e-21)
(0.30009552 -0.013742163 1.360718e-21)
(0.31595329 -0.013158114 3.8701501e-22)
(0.33172747 -0.012577184 1.2114923e-21)
(0.34739261 -0.012002031 1.8373469e-22)
(0.36292492 -0.011435029 -3.266773e-22)
(0.37830235 -0.010878279 -7.2443299e-22)
(0.39350461 -0.010333628 9.7175108e-22)
(0.40851325 -0.0098026689 8.2496811e-22)
(0.4233116 -0.0092867581 -1.5161598e-22)
(0.43788487 -0.0087870248 5.5319284e-22)
(0.45222007 -0.0083043839 -2.3883375e-22)
(0.466306 -0.0078395505 -3.7082826e-22)
(0.48013325 -0.0073930555 -6.1015471e-22)
(0.49369412 -0.0069652625 4.417938e-22)
(0.50698261 -0.0065563861 -1.5628782e-23)
(0.51999434 -0.0061665118 1.6140846e-22)
(0.5327266 -0.0057956155 -4.4200131e-22)
(0.5451782 -0.0054435915 3.7224492e-22)
(0.55734983 -0.0051102623 6.7209952e-23)
(0.56924305 -0.0047954645 -1.028597e-22)
(0.580864 -0.0044989154 1.7639531e-22)
(0.59221247 -0.0042208463 2.338051e-22)
(0.60331687 -0.0039602671 1.6963105e-22)
(0.61413167 -0.0037210329 1.681315e-22)
(0.62484662 -0.0034935745 -2.6185377e-23)
(0.63498926 -0.0033143934 8.4497726e-23)
(0.64605118 -0.0030852769 7.6746897e-23)
(0.65395665 -0.0031361882 -1.953158e-22)
(0.67024479 -0.0026167892 -3.7948891e-23)
(0.067616864 -0.024029833 9.4530233e-21)
(0.073592089 -0.0267498 3.2952054e-21)
(0.082268217 -0.028806383 -1.2162561e-20)
(0.091950855 -0.029969373 -1.2258676e-21)
(0.10198659 -0.030768785 1.497096e-20)
(0.1125501 -0.031331863 -1.4887451e-20)
(0.12368014 -0.031637091 -2.9843009e-20)
(0.13530143 -0.031714073 1.4493923e-20)
(0.14736205 -0.031608748 1.8182466e-20)
(0.15982903 -0.031351212 -1.1598842e-20)
(0.17266675 -0.030963019 1.0190812e-21)
(0.18583756 -0.030463993 8.6861215e-21)
(0.19930521 -0.029871831 -1.5254024e-20)
(0.21303461 -0.029201557 2.9098578e-21)
(0.22699119 -0.028466117 7.5197241e-21)
(0.24114093 -0.027676899 3.1397132e-23)
(0.2554505 -0.026843991 2.6543783e-22)
(0.26988728 -0.025976367 -7.4154262e-21)
(0.28441946 -0.025082073 3.8620847e-21)
(0.29901612 -0.024168367 8.4753375e-21)
(0.31364732 -0.023241822 -3.835379e-21)
(0.32828423 -0.022308404 -2.2131216e-21)
(0.34289922 -0.02137353 1.0124198e-21)
(0.35746599 -0.020442107 -1.715678e-21)
(0.37195964 -0.019518563 1.3532878e-21)
(0.38635681 -0.018606869 7.1849558e-22)
(0.40063568 -0.017710554 1.5272034e-21)
(0.41477609 -0.016832723 -1.9530576e-21)
(0.42875958 -0.015976074 2.224059e-21)
(0.44256937 -0.015142909 5.5199923e-22)
(0.45619044 -0.014335159 4.0352319e-22)
(0.46960945 -0.013554397 3.2137756e-22)
(0.48281481 -0.01280187 8.7361381e-22)
(0.49579658 -0.012078516 -1.3714467e-21)
(0.50854649 -0.011384997 3.7085205e-22)
(0.52105787 -0.010721729 1.0962092e-22)
(0.53332563 -0.010088912 -4.5245876e-23)
(0.5453463 -0.0094865635 8.6651945e-23)
(0.55711787 -0.0089145646 -3.7211363e-22)
(0.56864018 -0.008372677 1.8313552e-22)
(0.5799139 -0.0078606838 -3.5007277e-23)
(0.59094423 -0.0073781687 3.9072727e-22)
(0.60173016 -0.0069255651 -1.8580106e-22)
(0.6122987 -0.0065012841 4.7388772e-23)
(0.62260466 -0.0061117305 4.3733317e-23)
(0.63283236 -0.0057411937 -7.3833058e-23)
(0.64252151 -0.0054497019 -1.214368e-22)
(0.6531197 -0.0050761718 3.8966436e-22)
(0.6606768 -0.005160625 1.7329201e-22)
(0.67634651 -0.0043142449 -8.3119665e-22)
(0.15021868 -0.031461419 1.5010712e-21)
(0.15355054 -0.035258465 -1.1566762e-20)
(0.16062018 -0.038012072 6.6442601e-21)
(0.1688102 -0.03948032 -1.3325006e-20)
(0.1769869 -0.040521978 -1.9758721e-21)
(0.18552851 -0.041303635 9.1602052e-21)
(0.19458966 -0.041758656 -9.7665733e-21)
(0.20409282 -0.041915192 1.5662083e-21)
(0.21399406 -0.041834872 1.2904107e-20)
(0.22428288 -0.041555936 3.4033592e-21)
(0.23493997 -0.041103702 -6.2098519e-21)
(0.24593822 -0.040502162 -2.8639656e-21)
(0.25725022 -0.039773515 -5.8409375e-21)
(0.26884841 -0.038936875 -6.4555685e-21)
(0.28070422 -0.038008848 3.2356125e-21)
(0.29278837 -0.037004227 8.4602065e-22)
(0.30507128 -0.035936302 1.3680811e-21)
(0.31752338 -0.034817051 -3.3851492e-21)
(0.33011525 -0.033657331 -4.2431963e-21)
(0.34281788 -0.032467032 2.3618242e-21)
(0.35560285 -0.031255189 3.2254343e-21)
(0.36844251 -0.030030067 -1.5638576e-21)
(0.38131015 -0.028799214 1.5868745e-21)
(0.39418013 -0.027569509 -3.9134603e-22)
(0.40702805 -0.026347189 -3.92019e-21)
(0.41983081 -0.025137872 -3.0335354e-21)
(0.43256673 -0.023946575 -1.9036812e-22)
(0.44521564 -0.022777733 4.285241e-22)
(0.4577589 -0.021635216 -2.2108483e-21)
(0.47017943 -0.020522353 -8.5530927e-22)
(0.48246178 -0.01944195 2.2839645e-22)
(0.49459208 -0.018396324 -1.2502621e-21)
(0.50655808 -0.01738733 6.1739223e-24)
(0.51834911 -0.0164164 -4.2442771e-22)
(0.52995602 -0.015484578 -4.7201842e-22)
(0.54137126 -0.01459256 -5.2039181e-22)
(0.55258872 -0.013740745 -8.4200947e-22)
(0.56360388 -0.012929274 -5.444925e-23)
(0.5744136 -0.012158096 -3.9174861e-24)
(0.58501658 -0.011426992 -5.2025005e-22)
(0.59541228 -0.010735766 -9.1548483e-23)
(0.60560462 -0.010083946 -3.3289386e-22)
(0.61559149 -0.0094722302 -4.3846126e-22)
(0.62539801 -0.0088985194 3.7920074e-22)
(0.63497949 -0.0083717213 1.4853074e-23)
(0.64451261 -0.0078703577 1.8292434e-22)
(0.65355457 -0.0074767242 -1.3312589e-22)
(0.66348975 -0.0069708618 -2.6794413e-22)
(0.6705489 -0.0070880572 -4.4112469e-23)
(0.68533164 -0.005942766 4.6278571e-22)
(0.25469036 -0.03655406 -2.0900726e-20)
(0.25447516 -0.041394899 4.7586731e-20)
(0.2590786 -0.04474714 1.0348252e-20)
(0.26508974 -0.046443607 -1.5765622e-20)
(0.27071531 -0.047715957 -2.0228982e-21)
(0.27652631 -0.048749496 2.623211e-21)
(0.28284227 -0.049415515 -1.6609278e-21)
(0.28958412 -0.049729971 -4.6862456e-21)
(0.29670426 -0.049763375 -4.0160104e-21)
(0.30421365 -0.049559069 -1.2207935e-20)
(0.31211089 -0.049143773 1.7898332e-20)
(0.32037865 -0.048542956 6.5222528e-21)
(0.32899687 -0.047781186 -1.6780971e-20)
(0.33794454 -0.046880306 1.0317675e-20)
(0.34719827 -0.045859653 8.3850314e-21)
(0.35673267 -0.044736731 -8.7906155e-22)
(0.36652114 -0.043527551 -3.1221748e-21)
(0.37653641 -0.042246797 -3.8200579e-21)
(0.38675081 -0.040907976 -1.3894079e-21)
(0.39713663 -0.039523538 -1.2305619e-21)
(0.40766641 -0.038104979 -3.0260831e-21)
(0.41831318 -0.036662901 0)
(0.42905066 -0.035207065 -1.3453601e-21)
(0.43985348 -0.033746416 3.9312209e-21)
(0.45069729 -0.03228911 5.4058411e-21)
(0.46155893 -0.03084253 -9.4116854e-22)
(0.47241653 -0.029413305 -2.9280137e-21)
(0.48324954 -0.028007322 3.0265437e-21)
(0.49403887 -0.02662975 2.5428633e-22)
(0.50476688 -0.025285061 3.4360507e-21)
(0.51541742 -0.023977064 -5.3464332e-22)
(0.52597583 -0.022708934 1.7177399e-21)
(0.53642898 -0.021483256 -7.9994273e-22)
(0.54676521 -0.020302066 2.9117967e-22)
(0.55697433 -0.019166904 -4.3431151e-22)
(0.56704762 -0.018078859 5.6252901e-22)
(0.5769778 -0.017038635 4.5740196e-22)
(0.58675906 -0.016046603 3.8284523e-22)
(0.59638695 -0.015102883 -9.6015003e-22)
(0.6058588 -0.014207372 6.8420266e-22)
(0.61517269 -0.013359997 -3.6995692e-22)
(0.62433104 -0.01256032 -1.1048527e-21)
(0.63333047 -0.011809381 1.4100802e-21)
(0.64219385 -0.011104685 -6.2095398e-23)
(0.65087727 -0.010457567 -1.5852503e-22)
(0.65954782 -0.0098412839 -7.8476506e-24)
(0.66778498 -0.0093586819 -1.268377e-22)
(0.67689329 -0.0087363173 -4.6744711e-22)
(0.68333223 -0.0088850407 8.7844926e-22)
(0.69700318 -0.0074777746 -4.4375405e-23)
(0.37635722 -0.038369776 -1.7495453e-20)
(0.37171596 -0.044271932 1.2832222e-20)
(0.3728734 -0.048163413 2.9756022e-21)
(0.37591731 -0.050100741 -7.6355179e-21)
(0.37831249 -0.051671949 1.2056218e-20)
(0.38073054 -0.053044439 7.7915732e-21)
(0.38368402 -0.054032193 -1.264789e-20)
(0.38710902 -0.054635342 -6.0681104e-21)
(0.39093813 -0.054920327 1.269763e-20)
(0.39519182 -0.05492954 -1.53055e-20)
(0.39988415 -0.054690002 -1.406353e-20)
(0.40500552 -0.054227219 1.4130202e-20)
(0.41053966 -0.053566305 6.8195707e-21)
(0.41646884 -0.052730673 -4.2041784e-21)
(0.42277247 -0.051741818 -1.8544225e-21)
(0.42942706 -0.050619629 -4.0580957e-21)
(0.43640726 -0.049382659 5.3047028e-21)
(0.44368654 -0.048048264 3.6683246e-21)
(0.45123767 -0.046632666 -3.2408803e-21)
(0.45903313 -0.045151017 3.1380537e-21)
(0.46704538 -0.043617447 2.7668959e-21)
(0.47524725 -0.042045105 -3.2113553e-21)
(0.48361213 -0.040446175 3.7058187e-22)
(0.49211419 -0.038831892 -3.2572994e-21)
(0.50072854 -0.037212547 7.246543e-21)
(0.5094314 -0.035597503 6.1088268e-21)
(0.51820016 -0.033995201 8.0999685e-22)
(0.52701353 -0.032413177 -1.7685513e-21)
(0.53585154 -0.030858082 3.703126e-21)
(0.54469563 -0.029335713 7.1903084e-21)
(0.55352866 -0.027851044 2.3053588e-21)
(0.56233492 -0.026408271 3.3174902e-21)
(0.57110013 -0.025010857 1.9961813e-21)
(0.57981147 -0.02366159 7.4588856e-22)
(0.5884575 -0.02236264 -2.6378872e-22)
(0.59702821 -0.021115624 2.7216865e-21)
(0.60551498 -0.019921677 6.2026261e-22)
(0.6139106 -0.018781521 2.9504344e-22)
(0.62220922 -0.017695564 5.6262952e-23)
(0.6304067 -0.016663934 9.9064633e-22)
(0.63849966 -0.015686781 4.7049068e-23)
(0.64648892 -0.01476381 4.4309358e-22)
(0.65436982 -0.013896483 -1.2637017e-22)
(0.66216273 -0.013082033 -2.7789276e-22)
(0.66982488 -0.012334121 -1.5251531e-22)
(0.67751229 -0.01162133 -4.2317604e-22)
(0.68483069 -0.011064989 1.6210513e-22)
(0.69299123 -0.010344607 -1.2762751e-22)
(0.69872117 -0.010523284 -5.0100573e-22)
(0.71110869 -0.0088973744 2.4620628e-22)
(0.50928121 -0.035976167 3.6471169e-21)
(0.49953757 -0.042962645 -1.8958523e-20)
(0.49628302 -0.047385541 -2.3084407e-21)
(0.49556372 -0.049738941 5.487035e-21)
(0.49417768 -0.051820303 3.0529141e-21)
(0.49270425 -0.053707766 -4.979087e-23)
(0.4918212 -0.055190101 6.1899091e-21)
(0.49152383 -0.056267946 7.6252975e-21)
(0.49172143 -0.056993174 9.8582253e-21)
(0.49242095 -0.057398307 -1.125034e-20)
(0.49364177 -0.057509126 -2.1580085e-20)
(0.49537904 -0.057351332 -3.9355664e-21)
(0.4976165 -0.056950135 1.593868e-20)
(0.50033545 -0.056330102 1.2809393e-20)
(0.50351473 -0.055514915 -5.9067633e-21)
(0.50713027 -0.054527117 1.3815583e-21)
(0.51115588 -0.053388145 -3.6603885e-21)
(0.515564 -0.05211839 2.2448065e-21)
(0.52032636 -0.050737192 -2.9124012e-22)
(0.5254143 -0.049262806 -1.865525e-21)
(0.53079915 -0.047712402 7.8272497e-21)
(0.53645255 -0.046102057 -2.9321557e-22)
(0.54234669 -0.044446747 4.1831615e-22)
(0.54845453 -0.042760339 -6.5637017e-22)
(0.55474998 -0.041055584 -4.3033476e-21)
(0.561208 -0.039344124 4.2089532e-21)
(0.56780478 -0.037636489 1.90322e-21)
(0.57451774 -0.035942122 -3.3086036e-21)