/*--------------------------------*- C++ -*----------------------------------*\
| =========                 |                                                 |
| \\      /  F ield         | OpenFOAM: The Open Source CFD Toolbox           |
|  \\    /   O peration     | Version:  4.1                                   |
|   \\  /    A nd           | Web:      www.OpenFOAM.org                      |
|    \\/     M anipulation  |                                                 |
\*---------------------------------------------------------------------------*/
FoamFile
{
    version     2.0;
    format      ascii;
    class       volScalarField;
    location    "20";
    object      p;
}
// * * * * * * * * * * * * * * * * * * * * * * * * * * * * * * * * * * * * * //

dimensions      [0 2 -2 0 0 0 0];

internalField   nonuniform List<scalar> 
1000
(
1.5229228
1.5068551
1.490969
1.4752212
1.4595678
1.4439781
1.4284332
1.4129228
1.3974408
1.3819827
1.3665448
1.3511238
1.3357173
1.3203234
1.3049409
1.2895687
1.2742059
1.2588516
1.2435052
1.2281661
1.2128336
1.1975073
1.1821868
1.1668716
1.1515614
1.1362558
1.1209546
1.1056573
1.0903638
1.0750737
1.059787
1.0445033
1.0292224
1.0139443
0.99866862
0.98339531
0.9681242
0.95285514
0.93758801
0.92232269
0.90705906
0.89179702
0.87653646
0.86127729
0.84601943
0.8307628
0.81550731
0.80025289
0.78499948
0.76974702
0.75449544
0.73924469
0.72399471
0.70874546
0.6934969
0.67824897
0.66300163
0.64775486
0.63250861
0.61726285
0.60201755
0.58677268
0.57152821
0.55628411
0.54104037
0.52579696
0.51055385
0.49531103
0.48006848
0.46482618
0.44958411
0.43434227
0.41910063
0.40385918
0.3886179
0.3733768
0.35813585
0.34289504
0.32765437
0.31241383
0.29717341
0.28193309
0.26669288
0.25145276
0.23621273
0.22097278
0.20573291
0.19049311
0.17525338
0.16001371
0.1447741
0.12953454
0.11429503
0.099055573
0.083816154
0.068576774
0.053337433
0.038098123
0.02285885
0.0076195948
1.522768
1.5066831
1.4909111
1.4752595
1.4596379
1.4440405
1.4284801
1.4129598
1.3974733
1.3820124
1.3665715
1.3511473
1.3357378
1.3203415
1.3049571
1.2895834
1.2742192
1.2588638
1.2435164
1.2281764
1.2128431
1.1975161
1.182195
1.1668792
1.1515685
1.1362624
1.1209607
1.105663
1.0903691
1.0750787
1.0597916
1.0445076
1.0292265
1.0139481
0.99867216
0.98339862
0.96812729
0.95285803
0.93759072
0.92232522
0.90706143
0.89179923
0.87653853
0.86127923
0.84602124
0.83076449
0.81550889
0.80025437
0.78500087
0.76974832
0.75449665
0.73924582
0.72399577
0.70874645
0.69349782
0.67824983
0.66300244
0.64775561
0.63250932
0.61726351
0.60201816
0.58677325
0.57152874
0.55628461
0.54104084
0.52579739
0.51055425
0.49531141
0.48006883
0.46482651
0.44958442
0.43434255
0.41910089
0.40385942
0.38861813
0.37337701
0.35813605
0.34289523
0.32765454
0.31241399
0.29717355
0.28193323
0.266693
0.25145288
0.23621284
0.22097288
0.20573301
0.1904932
0.17525346
0.16001379
0.14477417
0.12953461
0.11429509
0.099055627
0.083816204
0.068576821
0.053337476
0.038098161
0.022858885
0.0076196135
1.5224816
1.5063251
1.49071
1.4752304
1.4596927
1.4441033
1.4285235
1.4129878
1.397496
1.3820349
1.3665936
1.3511674
1.3357551
1.3203563
1.30497
1.2895949
1.2742297
1.2588733
1.2435251
1.2281842
1.2128503
1.1975228
1.1822011
1.1668849
1.1515737
1.1362672
1.1209651
1.1056671
1.0903729
1.0750823
1.059795
1.0445107
1.0292294
1.0139508
0.99867469
0.98340098
0.9681295
0.9528601
0.93759265
0.92232702
0.90706311
0.89180081
0.87654
0.86128061
0.84602253
0.8307657
0.81551002
0.80025543
0.78500186
0.76974924
0.75449751
0.73924663
0.72399652
0.70874716
0.69349848
0.67825045
0.66300302
0.64775615
0.63250982
0.61726398
0.6020186
0.58677366
0.57152912
0.55628497
0.54104117
0.5257977
0.51055454
0.49531168
0.48006908
0.46482674
0.44958464
0.43434275
0.41910108
0.4038596
0.3886183
0.37337716
0.35813619
0.34289536
0.32765467
0.3124141
0.29717366
0.28193333
0.2666931
0.25145296
0.23621292
0.22097296
0.20573307
0.19049326
0.17525352
0.16001384
0.14477422
0.12953465
0.11429514
0.099055668
0.083816242
0.068576855
0.053337507
0.038098189
0.022858904
0.0076196262
1.522191
1.5059319
1.4904525
1.4751573
1.459728
1.4441623
1.4285671
1.4130148
1.3975173
1.382057
1.3666167
1.3511893
1.3357744
1.3203728
1.3049843
1.2896076
1.2742412
1.2588837
1.2435345
1.2281928
1.2128581
1.1975299
1.1822076
1.1668909
1.1515792
1.1362724
1.1209699
1.1056715
1.090377
1.0750861
1.0597985
1.044514
1.0292325
1.0139536
0.99867737
0.98340349
0.96813184
0.95286228
0.93759469
0.92232894
0.9070649
0.89180248
0.87654157
0.86128207
0.84602391
0.83076698
0.81551122
0.80025655
0.78500291
0.76975022
0.75449844
0.73924749
0.72399733
0.70874792
0.69349919
0.67825111
0.66300364
0.64775673
0.63251036
0.61726448
0.60201908
0.5867741
0.57152954
0.55628536
0.54104153
0.52579804
0.51055486
0.49531197
0.48006936
0.464827
0.44958488
0.43434298
0.41910129
0.40385979
0.38861848
0.37337733
0.35813635
0.34289551
0.32765481
0.31241423
0.29717378
0.28193344
0.2666932
0.25145306
0.23621301
0.22097304
0.20573315
0.19049334
0.17525359
0.1600139
0.14477428
0.12953471
0.11429519
0.099055715
0.083816284
0.068576896
0.053337542
0.038098223
0.022858927
0.0076196503
1.5220139
1.5056832
1.4902789
1.4750989
1.4597443
1.4441989
1.4285956
1.4130326
1.397531
1.3820715
1.3666324
1.3512046
1.3357881
1.3203847
1.3049948
1.289617
1.2742497
1.2588915
1.2435416
1.2281993
1.212864
1.1975353
1.1822126
1.1668955
1.1515835
1.1362763
1.1209736
1.1056749
1.0903802
1.075089
1.0598012
1.0445166
1.0292349
1.0139559
0.99867946
0.98340544
0.96813366
0.95286399
0.93759629
0.92233043
0.9070663
0.89180379
0.8765428
0.86128322
0.84602498
0.83076799
0.81551217
0.80025744
0.78500374
0.769751
0.75449916
0.73924817
0.72399797
0.70874851
0.69349975
0.67825163
0.66300413
0.64775719
0.63251079
0.61726489
0.60201945
0.58677445
0.57152987
0.55628566
0.54104182
0.52579831
0.51055511
0.49531221
0.48006958
0.4648272
0.44958507
0.43434316
0.41910146
0.40385995
0.38861862
0.37337747
0.35813647
0.34289563
0.32765492
0.31241434
0.29717387
0.28193353
0.26669328
0.25145314
0.23621308
0.22097311
0.20573321
0.19049339
0.17525364
0.16001396
0.14477433
0.12953475
0.11429523
0.099055753
0.083816319
0.068576929
0.05333757
0.038098252
0.022858948
0.0076196732
1.5220139
1.5056832
1.4902789
1.4750989
1.4597443
1.4441989
1.4285956
1.4130326
1.397531
1.3820715
1.3666324
1.3512046
1.3357881
1.3203847
1.3049948
1.289617
1.2742497
1.2588915
1.2435416
1.2281993
1.212864
1.1975353
1.1822126
1.1668955
1.1515835
1.1362763
1.1209736
1.1056749
1.0903802
1.075089
1.0598012
1.0445166
1.0292349
1.0139559
0.99867946
0.98340544
0.96813366
0.95286399
0.93759629
0.92233043
0.9070663
0.89180379
0.8765428
0.86128322
0.84602498
0.83076799
0.81551217
0.80025744
0.78500374
0.769751
0.75449916
0.73924817
0.72399797
0.70874851
0.69349975
0.67825163
0.66300413
0.64775719
0.63251079
0.61726489
0.60201945
0.58677445
0.57152987
0.55628566
0.54104182
0.52579831
0.51055511
0.49531221
0.48006958
0.4648272
0.44958507
0.43434316
0.41910146
0.40385995
0.38861862
0.37337747
0.35813647
0.34289563
0.32765492
0.31241434
0.29717387
0.28193353
0.26669328
0.25145314
0.23621308
0.22097311
0.20573321
0.1904934
0.17525364
0.16001396
0.14477433
0.12953475
0.11429523
0.099055753
0.083816319
0.06857693
0.05333757
0.038098252
0.022858948
0.0076196736
1.522191
1.5059319
1.4904525
1.4751573
1.459728
1.4441623
1.4285671
1.4130148
1.3975173
1.382057
1.3666167
1.3511893
1.3357744
1.3203728
1.3049843
1.2896076
1.2742412
1.2588837
1.2435345
1.2281928
1.2128581
1.1975299
1.1822076
1.1668909
1.1515792
1.1362724
1.1209699
1.1056715
1.090377
1.0750861
1.0597985
1.044514
1.0292325
1.0139536
0.99867737
0.98340349
0.96813184
0.95286229
0.93759469
0.92232894
0.9070649
0.89180248
0.87654157
0.86128207
0.84602391
0.83076698
0.81551122
0.80025655
0.78500291
0.76975022
0.75449844
0.73924749
0.72399733
0.70874791
0.69349919
0.67825111
0.66300364
0.64775673
0.63251036
0.61726448
0.60201908
0.5867741
0.57152954
0.55628536
0.54104153
0.52579804
0.51055486
0.49531197
0.48006936
0.464827
0.44958488
0.43434298
0.41910129
0.40385979
0.38861848
0.37337733
0.35813635
0.34289551
0.32765481
0.31241423
0.29717378
0.28193344
0.2666932
0.25145306
0.23621301
0.22097304
0.20573315
0.19049334
0.17525359
0.1600139
0.14477428
0.12953471
0.11429519
0.099055715
0.083816285
0.068576897
0.053337542
0.038098224
0.022858928
0.0076196511
1.5224816
1.5063251
1.49071
1.4752304
1.4596927
1.4441032
1.4285235
1.4129877
1.3974959
1.3820349
1.3665936
1.3511674
1.3357551
1.3203563
1.30497
1.2895949
1.2742297
1.2588733
1.2435251
1.2281842
1.2128503
1.1975228
1.1822011
1.1668849
1.1515737
1.1362672
1.1209651
1.1056671
1.0903729
1.0750823
1.059795
1.0445107
1.0292294
1.0139508
0.99867469
0.98340098
0.9681295
0.9528601
0.93759265
0.92232702
0.90706311
0.89180081
0.87654
0.86128061
0.84602253
0.8307657
0.81551002
0.80025543
0.78500186
0.76974924
0.75449751
0.73924663
0.72399652
0.70874716
0.69349848
0.67825045
0.66300302
0.64775615
0.63250982
0.61726398
0.6020186
0.58677366
0.57152912
0.55628497
0.54104117
0.5257977
0.51055454
0.49531168
0.48006908
0.46482674
0.44958464
0.43434275
0.41910108
0.4038596
0.3886183
0.37337716
0.35813619
0.34289536
0.32765467
0.3124141
0.29717366
0.28193333
0.2666931
0.25145296
0.23621292
0.22097296
0.20573307
0.19049326
0.17525352
0.16001384
0.14477422
0.12953465
0.11429514
0.099055669
0.083816242
0.068576856
0.053337507
0.03809819
0.022858905
0.007619627
1.522768
1.5066831
1.4909112
1.4752595
1.4596379
1.4440405
1.4284801
1.4129598
1.3974733
1.3820124
1.3665715
1.3511473
1.3357378
1.3203415
1.3049571
1.2895834
1.2742192
1.2588638
1.2435164
1.2281764
1.2128431
1.1975161
1.182195
1.1668792
1.1515685
1.1362624
1.1209607
1.105663
1.0903691
1.0750787
1.0597916
1.0445076
1.0292265
1.0139481
0.99867216
0.98339862
0.96812729
0.95285804
0.93759072
0.92232522
0.90706143
0.89179923
0.87653853
0.86127923
0.84602124
0.83076449
0.81550889
0.80025437
0.78500087
0.76974832
0.75449665
0.73924582
0.72399577
0.70874645
0.69349782
0.67824983
0.66300244
0.64775561
0.63250931
0.61726351
0.60201816
0.58677325
0.57152874
0.55628461
0.54104084
0.52579739
0.51055425
0.49531141
0.48006883
0.46482651
0.44958442
0.43434255
0.41910089
0.40385942
0.38861813
0.37337701
0.35813605
0.34289523
0.32765454
0.31241399
0.29717355
0.28193323
0.266693
0.25145288
0.23621284
0.22097288
0.20573301
0.1904932
0.17525346
0.16001379
0.14477417
0.12953461
0.11429509
0.099055628
0.083816205
0.068576821
0.053337476
0.038098162
0.022858886
0.007619614
1.5229228
1.5068551
1.490969
1.4752212
1.4595679
1.4439781
1.4284332
1.4129228
1.3974408
1.3819827
1.3665448
1.3511238
1.3357173
1.3203234
1.3049409
1.2895687
1.2742059
1.2588516
1.2435052
1.2281661
1.2128336
1.1975073
1.1821868
1.1668717
1.1515614
1.1362558
1.1209546
1.1056573
1.0903638
1.0750737
1.059787
1.0445033
1.0292224
1.0139443
0.99866863
0.98339531
0.9681242
0.95285514
0.93758801
0.92232269
0.90705906
0.89179702
0.87653646
0.86127729
0.84601943
0.8307628
0.81550731
0.80025289
0.78499948
0.76974702
0.75449544
0.73924469
0.72399471
0.70874546
0.6934969
0.67824897
0.66300163
0.64775486
0.63250861
0.61726285
0.60201755
0.58677268
0.57152821
0.55628411
0.54104037
0.52579696
0.51055385
0.49531103
0.48006848
0.46482618
0.44958411
0.43434227
0.41910063
0.40385918
0.3886179
0.3733768
0.35813585
0.34289504
0.32765437
0.31241383
0.29717341
0.28193309
0.26669288
0.25145276
0.23621273
0.22097278
0.20573291
0.19049311
0.17525338
0.16001371
0.1447741
0.12953454
0.11429504
0.099055574
0.083816155
0.068576775
0.053337433
0.038098123
0.02285885
0.0076195951
)
;

boundaryField
{
    top
    {
        type            zeroGradient;
    }
    inlet
    {
        type            fixedValue;
        value           uniform 1.53103;
    }
    outlet
    {
        type            fixedValue;
        value           uniform 0;
    }
    bottom
    {
        type            zeroGradient;
    }
    back
    {
        type            empty;
    }
    front
    {
        type            empty;
    }
}


// ************************************************************************* //
