/*--------------------------------*- C++ -*----------------------------------*\
| =========                 |                                                 |
| \\      /  F ield         | OpenFOAM: The Open Source CFD Toolbox           |
|  \\    /   O peration     | Version:  4.1                                   |
|   \\  /    A nd           | Web:      www.OpenFOAM.org                      |
|    \\/     M anipulation  |                                                 |
\*---------------------------------------------------------------------------*/
FoamFile
{
    version     2.0;
    format      ascii;
    class       surfaceScalarField;
    location    "20";
    object      phi;
}
// * * * * * * * * * * * * * * * * * * * * * * * * * * * * * * * * * * * * * //

dimensions      [0 3 -1 0 0 0 0];

internalField   nonuniform List<scalar> 
1890
(
0.0031303669
1.0887432e-06
0.0031266667
3.7010399e-06
0.0031220443
4.6226865e-06
0.0031178344
4.2097972e-06
0.0031144725
3.3616484e-06
0.0031118328
2.6394771e-06
0.0031096679
2.1646002e-06
0.0031078083
1.8594473e-06
0.0031061751
1.6329201e-06
0.0031047352
1.4396983e-06
0.0031034643
1.2707372e-06
0.0031023358
1.1283105e-06
0.0031013237
1.0119541e-06
0.0031004068
9.168157e-07
0.0030995698
8.3686973e-07
0.0030988022
7.6751483e-07
0.003098096
7.0609471e-07
0.0030974447
6.5121853e-07
0.0030968427
6.0199275e-07
0.0030962849
5.5764565e-07
0.0030957674
5.1746927e-07
0.0030952865
4.8086467e-07
0.0030948391
4.4736201e-07
0.0030944224
4.1659704e-07
0.0030940341
3.8827659e-07
0.0030936719
3.621507e-07
0.0030933339
3.3800233e-07
0.0030930182
3.1564024e-07
0.0030927233
2.9489916e-07
0.0030924477
2.7563335e-07
0.0030921899
2.5771655e-07
0.0030919489
2.4103524e-07
0.0030917233
2.2549014e-07
0.0030915123
2.1099044e-07
0.0030913149
1.9745661e-07
0.00309113
1.8481483e-07
0.003090957
1.7300058e-07
0.0030907951
1.6195301e-07
0.0030906434
1.5161902e-07
0.0030905015
1.4194771e-07
0.0030903686
1.3289487e-07
0.0030902441
1.2441742e-07
0.0030901276
1.1647823e-07
0.0030900186
1.0904043e-07
0.0030899165
1.0207255e-07
0.003089821
9.5542802e-08
0.0030897315
8.9424378e-08
0.0030896478
8.368962e-08
0.0030895695
7.8315551e-08
0.0030894962
7.3278007e-08
0.0030894277
6.8557239e-08
0.0030893635
6.4131985e-08
0.0030893036
5.998521e-08
0.0030892475
5.6098166e-08
0.003089195
5.2456156e-08
0.003089146
4.9042537e-08
0.0030891001
4.5844608e-08
0.0030890573
4.2847594e-08
0.0030890172
4.0040534e-08
0.0030889798
3.7410226e-08
0.0030889449
3.494721e-08
0.0030889122
3.26397e-08
0.0030888817
3.0479562e-08
0.0030888533
2.8456204e-08
0.0030888267
2.6562635e-08
0.0030888019
2.4789355e-08
0.0030887788
2.31304e-08
0.0030887572
2.1577177e-08
0.0030887371
2.0124612e-08
0.0030887183
1.8764952e-08
0.0030887008
1.7493934e-08
0.0030886845
1.6304483e-08
0.0030886693
1.5193057e-08
0.0030886552
1.4153197e-08
0.003088642
1.3182049e-08
0.0030886297
1.2273605e-08
0.0030886183
1.1425667e-08
0.0030886077
1.0632581e-08
0.0030885978
9.8928683e-09
0.0030885886
9.2009792e-09
0.00308858
8.5562632e-09
0.0030885721
7.953032e-09
0.0030885647
7.3917537e-09
0.0030885578
6.866082e-09
0.0030885514
6.3780941e-09
0.0030885455
5.9200775e-09
0.00308854
5.4966175e-09
0.0030885349
5.0973812e-09
0.0030885302
4.7308744e-09
0.0030885258
4.3823595e-09
0.0030885217
4.0663913e-09
0.003088518
3.7613034e-09
0.0030885145
3.4902614e-09
0.0030885113
3.222168e-09
0.0030885083
2.9898426e-09
0.0030885055
2.7547161e-09
0.003088503
2.5532062e-09
0.0030885006
2.3624225e-09
0.0030884984
2.1931307e-09
2.2244386e-09
0.007977226
1.2006118e-06
0.0079756995
5.2286735e-06
0.0079729349
7.3877707e-06
0.0079696878
7.4568085e-06
0.007966512
6.5372129e-06
0.0079635621
5.5890763e-06
0.0079608161
4.9104292e-06
0.0079582411
4.4342502e-06
0.0079558352
4.0386453e-06
0.0079536095
3.6653083e-06
0.0079515661
3.3139273e-06
0.0079496945
2.9998458e-06
0.0079479771
2.7291714e-06
0.0079463968
2.4970261e-06
0.007944939
2.2946224e-06
0.0079435917
2.1147264e-06
0.0079423447
1.9529927e-06
0.0079411889
1.8069522e-06
0.007940116
1.6747999e-06
0.0079391188
1.5548512e-06
0.0079381907
1.4455196e-06
0.007937326
1.3454344e-06
0.0079365199
1.2534836e-06
0.0079357677
1.1687748e-06
0.0079350654
1.090567e-06
0.0079344092
1.0182246e-06
0.007933796
9.5119007e-07
0.0079332227
8.8897571e-07
0.0079326864
8.311528e-07
0.0079321847
7.7734662e-07
0.0079317151
7.2722424e-07
0.0079312757
6.8049119e-07
0.0079308643
6.368818e-07
0.0079304791
5.9615911e-07
0.0079301184
5.5810716e-07
0.0079297807
5.2253236e-07
0.0079294644
4.8925665e-07
0.0079291682
4.581198e-07
0.0079288909
4.2897303e-07
0.0079286311
4.0168204e-07
0.0079283879
3.7612105e-07
0.0079281601
3.5217643e-07
0.0079279469
3.297409e-07
0.0079277472
3.0871748e-07
0.0079275602
2.8901387e-07
0.0079273852
2.705468e-07
0.0079272214
2.5323642e-07
0.0079270681
2.3701078e-07
0.0079269246
2.2180035e-07
0.0079267903
2.0754277e-07
0.0079266647
1.9417733e-07
0.0079265472
1.8164971e-07
0.0079264372
1.699066e-07
0.0079263344
1.5890069e-07
0.0079262383
1.4858514e-07
0.0079261484
1.3891854e-07
0.0079260644
1.2985954e-07
0.0079259859
1.2137196e-07
0.0079259125
1.1341934e-07
0.0079258439
1.0596994e-07
0.0079257799
9.8991438e-08
0.0079257201
9.2456094e-08
0.0079256642
8.6335332e-08
0.0079256121
8.0604782e-08
0.0079255634
7.5239052e-08
0.007925518
7.021686e-08
0.0079254756
6.5515726e-08
0.007925436
6.1116939e-08
0.0079253992
5.7000498e-08
0.0079253648
5.315007e-08
0.0079253327
4.9547969e-08
0.0079253029
4.6179791e-08
0.007925275
4.3029842e-08
0.0079252491
4.0085481e-08
0.0079252249
3.7332972e-08
0.0079252025
3.4760973e-08
0.0079251815
3.2357544e-08
0.007925162
3.0112388e-08
0.0079251439
2.8015572e-08
0.0079251271
2.6057172e-08
0.0079251114
2.4229489e-08
0.0079250968
2.252229e-08
0.0079250833
2.0930988e-08
0.0079250707
1.9443564e-08
0.007925059
1.8059929e-08
0.0079250482
1.6764121e-08
0.0079250381
1.5563469e-08
0.0079250288
1.4433936e-08
0.0079250201
1.3395237e-08
0.0079250121
1.2408401e-08
0.0079250046
1.1514719e-08
0.0079249978
1.0647912e-08
0.0079249914
9.8867782e-09
0.0079249855
9.1158847e-09
0.00792498
8.4811205e-09
0.0079249749
7.779597e-09
0.0079249702
7.2817318e-09
0.007924966
6.6278749e-09
0.0079249618
6.3316068e-09
5.6981951e-09
0.011499554
8.8598686e-07
0.011500375
4.4089209e-06
0.011501064
6.6989204e-06
0.011501355
7.1661554e-06
0.011501349
6.5420738e-06
0.011501157
5.7812477e-06
0.011500821
5.2458339e-06
0.011500368
4.8874791e-06
0.011499827
4.5790861e-06
0.011499234
4.2587043e-06
0.011498615
3.9330119e-06
0.011497988
3.6267714e-06
0.011497364
3.353065e-06
0.01149675
3.1107293e-06
0.011496152
2.8928132e-06
0.011495573
2.6934416e-06
0.011495016
2.5095775e-06
0.011494483
2.3398869e-06
0.011493974
2.1833952e-06
0.01149349
2.0389618e-06
0.01149303
1.9053512e-06
0.011492594
1.7814333e-06
0.011492182
1.6662724e-06
0.011491791
1.5591025e-06
0.011491423
1.4592693e-06
0.011491075
1.3661878e-06
0.011490746
1.2793279e-06
0.011490437
1.1982087e-06
0.011490146
1.1223983e-06
0.011489872
1.0515065e-06
0.011489614
9.8518112e-07
0.011489371
9.2310028e-07
0.011489143
8.6497083e-07
0.011488929
8.105223e-07
0.011488727
7.595077e-07
0.011488538
7.1169788e-07
0.01148836
6.6688314e-07
0.011488194
6.2486769e-07
0.011488037
5.8547199e-07
0.01148789
5.4852749e-07
0.011487752
5.1387958e-07
0.011487623
4.8138228e-07
0.011487502
4.5090168e-07
0.011487389
4.2231076e-07
0.011487282
3.9549309e-07
0.011487182
3.7033773e-07
0.011487089
3.4674306e-07
0.011487001
3.2461181e-07
0.011486919
3.0385516e-07
0.011486842
2.8438763e-07
0.01148677
2.6613134e-07
0.011486703
2.4901099e-07
0.01148664
2.3295827e-07
0.011486581
2.1790677e-07
0.011486526
2.0379643e-07
0.011486474
1.9056856e-07
0.011486426
1.7817041e-07
0.01148638
1.6655009e-07
0.011486338
1.5566117e-07
0.011486299
1.454577e-07
0.011486262
1.3589887e-07
0.011486227
1.2694399e-07
0.011486195
1.1855717e-07
0.011486165
1.1070228e-07
0.011486137
1.0334782e-07
0.011486111
9.6461766e-08
0.011486086
9.0016421e-08
0.011486063
8.3983298e-08
0.011486042
7.8338176e-08
0.011486022
7.3055716e-08
0.011486003
6.811473e-08
0.011485986
6.3492557e-08
0.01148597
5.9170839e-08
0.011485955
5.5129227e-08
0.011485941
5.1351941e-08
0.011485928
4.7820433e-08
0.011485916
4.4521535e-08
0.011485904
4.1437975e-08
0.011485894
3.8559335e-08
0.011485884
3.5868732e-08
0.011485875
3.3359181e-08
0.011485866
3.1012909e-08
0.011485859
2.8827669e-08
0.011485851
2.6782424e-08
0.011485844
2.4882502e-08
0.011485838
2.3099465e-08
0.011485832
2.1451544e-08
0.011485827
1.9895091e-08
0.011485822
1.8471615e-08
0.011485817
1.7107843e-08
0.011485813
1.5888052e-08
0.011485809
1.4682208e-08
0.011485805
1.3653864e-08
0.011485801
1.2566215e-08
0.011485798
1.1731063e-08
0.011485795
1.0715004e-08
0.011485792
1.0100047e-08
0.01148579
9.102181e-09
0.011485787
8.7659308e-09
7.770408e-09
0.013788891
4.5627708e-07
0.013790872
2.4294012e-06
0.013793737
3.8342941e-06
0.013796672
4.230376e-06
0.013799277
3.9364788e-06
0.013801539
3.5187617e-06
0.013803551
3.234305e-06
0.013805379
3.058748e-06
0.013807048
2.9099555e-06
0.013808563
2.7441599e-06
0.01380993
2.5656372e-06
0.013811164
2.3923575e-06
0.013812283
2.2346638e-06
0.0138133
2.0929688e-06
0.01381423
1.9634133e-06
0.01381508
1.8426809e-06
0.013815861
1.729326e-06
0.013816577
1.6229906e-06
0.013817237
1.5234777e-06
0.013817846
1.4303898e-06
0.013818408
1.3431989e-06
0.013818928
1.2613972e-06
0.01381941
1.1845683e-06
0.013819856
1.1123779e-06
0.013820271
1.0445359e-06
0.013820656
9.80776e-07
0.013821015
9.2084464e-07
0.013821348
8.6450695e-07
0.013821659
8.115418e-07
0.013821949
7.6174808e-07
0.013822219
7.1493491e-07
0.013822471
6.7092785e-07
0.013822707
6.2955855e-07
0.013822927
5.9067363e-07
0.013823132
5.5412388e-07
0.013823324
5.1977438e-07
0.013823503
4.8749264e-07
0.013823671
4.5715971e-07
0.013823828
4.2865768e-07
0.013823974
4.0188165e-07
0.013824112
3.7672657e-07
0.01382424
3.5309983e-07
0.01382436
3.3090772e-07
0.013824472
3.1006863e-07
0.013824577
2.9049897e-07
0.013824675
2.7212675e-07
0.013824767
2.5487728e-07
0.013824853
2.3868728e-07
0.013824933
2.2349002e-07
0.013825009
2.0922979e-07
0.013825079
1.9584693e-07
0.013825145
1.8329257e-07
0.013825206
1.7151336e-07
0.013825263
1.604664e-07
0.013825317
1.5010391e-07
0.013825367
1.403884e-07
0.013825414
1.3127709e-07
0.013825458
1.2273718e-07
0.013825499
1.1473029e-07
0.013825537
1.0722787e-07
0.013825573
1.0019554e-07
0.013825606
9.3608408e-08
0.013825637
8.743555e-08
0.013825666
8.1655458e-08
0.013825693
7.6240349e-08
0.013825719
7.1171577e-08
0.013825742
6.6424105e-08
0.013825764
6.1981929e-08
0.013825785
5.7822527e-08
0.013825804
5.393209e-08
0.013825822
5.0290303e-08
0.013825838
4.6885377e-08
0.013825854
4.3699078e-08
0.013825868
4.0721196e-08
0.013825882
3.7935406e-08
0.013825894
3.5332847e-08
0.013825906
3.2899177e-08
0.013825917
3.0626289e-08
0.013825927
2.8501981e-08
0.013825936
2.6518323e-08
0.013825945
2.4665907e-08
0.013825953
2.2935675e-08
0.01382596
2.1322243e-08
0.013825967
1.9813446e-08
0.013825974
1.8410595e-08
0.01382598
1.7094407e-08
0.013825985
1.5877923e-08
0.013825991
1.4727588e-08
0.013825995
1.3677975e-08
0.013826
1.2667577e-08
0.013826004
1.1770695e-08
0.013826008
1.0872866e-08
0.013826011
1.0121498e-08
0.013826014
9.3050956e-09
0.013826018
8.7032745e-09
0.01382602
7.9324289e-09
0.013826023
7.5005824e-09
0.013826025
6.7295337e-09
0.013826028
6.5003212e-09
5.7575564e-09
0.014914888
3.0308377e-11
0.014917318
9.0859882e-11
0.014921153
3.3591052e-11
0.014925383
-1.9119556e-11
0.014929319
-3.0117984e-11
0.014932837
1.8108307e-11
0.014936071
7.4814112e-11
0.01493913
1.1083837e-10
0.014942039
1.2080552e-10
0.014944783
1.2298031e-10
0.014947349
1.2543805e-10
0.014949741
1.3072718e-10
0.014951975
1.3293412e-10
0.014954068
1.3209047e-10
0.014956031
1.2675726e-10
0.014957874
1.1941237e-10
0.014959603
1.1002093e-10
0.014961226
9.9895572e-11
0.014962749
8.8939603e-11
0.014964179
7.7671643e-11
0.014965522
6.639927e-11
0.014966784
5.5234267e-11
0.014967968
4.4810747e-11
0.01496908
3.4767599e-11
0.014970125
2.5855254e-11
0.014971106
1.7305139e-11
0.014972026
1.008544e-11
0.014972891
3.3569256e-12
0.014973702
-2.1507445e-12
0.014974464
-7.7592016e-12
0.014975179
-1.1776297e-11
0.01497585
-1.5820177e-11
0.01497648
-1.8483664e-11
0.01497707
-2.1469527e-11
0.014977624
-2.3123463e-11
0.014978144
-2.5214816e-11
0.014978632
-2.5984774e-11
0.014979089
-2.744711e-11
0.014979518
-2.7654577e-11
0.014979919
-2.8601807e-11
0.014980296
-2.8282908e-11
0.014980649
-2.8909702e-11
0.01498098
-2.8325745e-11
0.01498129
-2.8677996e-11
0.014981581
-2.7789782e-11
0.014981853
-2.8004546e-11
0.014982108
-2.7027419e-11
0.014982347
-2.7103073e-11
0.01498257
-2.5947066e-11
0.014982779
-2.5982596e-11
0.014982975
-2.4832889e-11
0.014983159
-2.4800401e-11
0.01498333
-2.3536647e-11
0.014983491
-2.3512936e-11
0.014983641
-2.2304043e-11
0.014983781
-2.224707e-11
0.014983912
-2.0956017e-11
0.014984035
-2.0930351e-11
0.01498415
-1.9717593e-11
0.014984257
-1.9674201e-11
0.014984357
-1.8394001e-11
0.014984451
-1.8390821e-11
0.014984538
-1.7199185e-11
0.01498462
-1.7184111e-11
0.014984696
-1.5931105e-11
0.014984768
-1.5958544e-11
0.014984834
-1.4797792e-11
0.014984896
-1.4814903e-11
0.014984954
-1.3595187e-11
0.014985008
-1.3654866e-11
0.014985058
-1.2528877e-11
0.014985105
-1.2579547e-11
0.014985149
-1.1397286e-11
0.014985189
-1.1492491e-11
0.014985227
-1.0407478e-11
0.014985263
-1.049957e-11
0.014985296
-9.3660477e-12
0.014985326
-9.5125123e-12
0.014985355
-8.4876908e-12
0.014985381
-8.6493007e-12
0.014985406
-7.5959813e-12
0.014985429
-7.8404309e-12
0.01498545
-6.9248118e-12
0.01498547
-7.2297175e-12
0.014985488
-6.3290876e-12
0.014985506
-6.7813204e-12
0.014985521
-6.0775087e-12
0.014985536
-6.6803076e-12
0.01498555
-6.0759294e-12
0.014985563
-6.9499322e-12
0.014985574
-6.7658938e-12
0.014985585
-8.2129273e-12
0.014985595
-8.5983544e-12
0.014985605
-1.0558729e-11
0.014985613
-1.1105286e-11
0.014985621
-1.2135247e-11
0.014985629
-1.2753349e-11
0.014985636
-1.3063264e-11
0.014985642
-1.6170157e-11
-1.7675865e-11
0.014914887
-4.5632696e-07
0.014917318
-2.4296951e-06
0.014921152
-3.8346035e-06
0.014925382
-4.2305629e-06
0.014929318
-3.9365312e-06
0.014932837
-3.5187386e-06
0.014936071
-3.2342261e-06
0.01493913
-3.0586245e-06
0.014942039
-2.9098006e-06
0.014944783
-2.7439784e-06
0.014947349
-2.5654351e-06
0.014949741
-2.3921393e-06
0.014951975
-2.2344379e-06
0.014954068
-2.0927418e-06
0.014956031
-1.9631923e-06
0.014957874
-1.8424705e-06
0.014959603
-1.7291304e-06
0.014961226
-1.6228121e-06
0.014962749
-1.5233183e-06
0.014964179
-1.4302503e-06
0.014965522
-1.3430797e-06
0.014966784
-1.261298e-06
0.014967968
-1.1844881e-06
0.014969081
-1.1123157e-06
0.014970125
-1.0444901e-06
0.014971106
-9.8074558e-07
0.014972027
-9.2082756e-07
0.014972891
-8.6450205e-07
0.014973703
-8.1154726e-07
0.014974464
-7.6176322e-07
0.014975179
-7.1495767e-07
0.01497585
-6.7095756e-07
0.01497648
-6.2959344e-07
0.01497707
-5.9071348e-07
0.014977624
-5.5416703e-07
0.014978144
-5.1982078e-07
0.014978632
-4.8754086e-07
0.014979089
-4.5721002e-07
0.014979518
-4.2870871e-07
0.01497992
-4.0193379e-07
0.014980296
-3.767786e-07
0.014980649
-3.5315239e-07
0.01498098
-3.3095962e-07
0.01498129
-3.1012055e-07
0.014981581
-2.905498e-07
0.014981853
-2.7217735e-07
0.014982108
-2.5492656e-07
0.014982347
-2.3873606e-07
0.01498257
-2.2353728e-07
0.014982779
-2.0927651e-07
0.014982975
-1.9589205e-07
0.014983159
-1.83337e-07
0.01498333
-1.7155611e-07
0.014983491
-1.6050851e-07
0.014983641
-1.5014434e-07
0.014983781
-1.404281e-07
0.014983912
-1.3131509e-07
0.014984035
-1.2277453e-07
0.01498415
-1.1476597e-07
0.014984257
-1.0726287e-07
0.014984357
-1.0022886e-07
0.014984451
-9.3641135e-08
0.014984538
-8.7466648e-08
0.01498462
-8.1685928e-08
0.014984696
-7.6269194e-08
0.014984768
-7.1199894e-08
0.014984834
-6.6450853e-08
0.014984896
-6.2008111e-08
0.014984954
-5.7847145e-08
0.014985008
-5.3956243e-08
0.014985058
-5.031295e-08
0.014985105
-4.6907523e-08
0.014985149
-4.3719727e-08
0.014985189
-4.0741449e-08
0.014985227
-3.7954226e-08
0.014985263
-3.5351245e-08
0.014985296
-3.2916166e-08
0.014985326
-3.0642979e-08
0.014985355
-2.8517349e-08
0.014985381
-2.6533399e-08
0.014985406
-2.4679723e-08
0.014985429
-2.2949371e-08
0.01498545
-2.1334826e-08
0.01498547
-1.9825994e-08
0.014985488
-1.8422184e-08
0.014985505
-1.7106241e-08
0.014985521
-1.5889068e-08
0.014985536
-1.4739217e-08
0.01498555
-1.3689245e-08
0.014985562
-1.267984e-08
0.014985574
-1.1783262e-08
0.014985585
-1.0887277e-08
0.014985595
-1.0137315e-08
0.014985605
-9.3237368e-09
0.014985613
-8.7232461e-09
0.014985621
-7.9541897e-09
0.014985629
-7.5232593e-09
0.014985635
-6.7520094e-09
0.014985642
-6.5273576e-09
-5.7865019e-09
0.013788892
-8.8597835e-07
0.013790872
-4.4088477e-06
0.013793736
-6.6988788e-06
0.013796672
-7.1661913e-06
0.013799277
-6.5421316e-06
0.013801539
-5.7812991e-06
0.013803551
-5.2458459e-06
0.013805379
-4.8874535e-06
0.013807048
-4.5790199e-06
0.013808563
-4.2586091e-06
0.01380993
-3.9328893e-06
0.013811164
-3.6266317e-06
0.013812283
-3.3529112e-06
0.0138133
-3.1105704e-06
0.01381423
-2.8926528e-06
0.013815081
-2.6932866e-06
0.013815861
-2.5094306e-06
0.013816578
-2.339752e-06
0.013817237
-2.1832739e-06
0.013817846
-2.0388554e-06
0.013818408
-1.9052603e-06
0.013818928
-1.7813574e-06
0.01381941
-1.6662116e-06
0.013819857
-1.5590552e-06
0.013820271
-1.4592354e-06
0.013820657
-1.3661649e-06
0.013821015
-1.2793163e-06
0.013821349
-1.1982054e-06
0.01382166
-1.1224042e-06
0.013821949
-1.0515183e-06
0.01382222
-9.8519999e-07
0.013822472
-9.231229e-07
0.013822707
-8.6499876e-07
0.013822927
-8.1055224e-07
0.013823132
-7.5954151e-07
0.013823324
-7.117323e-07
0.013823503
-6.6692048e-07
0.013823671
-6.2490463e-07
0.013823828
-5.8551102e-07
0.013823975
-5.4856535e-07
0.013824112
-5.1391909e-07
0.01382424
-4.8142012e-07
0.01382436
-4.5094074e-07
0.013824472
-4.2234775e-07
0.013824577
-3.9553117e-07
0.013824675
-3.7037352e-07
0.013824767
-3.4677972e-07
0.013824853
-3.2464601e-07
0.013824933
-3.0389025e-07
0.013825009
-2.8442019e-07
0.013825079
-2.6616467e-07
0.013825145
-2.4904171e-07
0.013825206
-2.3298985e-07
0.013825263
-2.1793574e-07
0.013825317
-2.0382618e-07
0.013825367
-1.9059567e-07
0.013825414
-1.7819843e-07
0.013825458
-1.665755e-07
0.013825499
-1.5568742e-07
0.013825537
-1.4548132e-07
0.013825573
-1.3592346e-07
0.013825606
-1.2696601e-07
0.013825637
-1.1858009e-07
0.013825666
-1.1072262e-07
0.013825693
-1.0336918e-07
0.013825719
-9.6480593e-08
0.013825742
-9.0036199e-08
0.013825764
-8.4000542e-08
0.013825785
-7.835649e-08
0.013825804
-7.3071551e-08
0.013825822
-6.8131566e-08
0.013825838
-6.3506908e-08
0.013825854
-5.9186309e-08
0.013825868
-5.5142273e-08
0.013825882
-5.1366041e-08
0.013825894
-4.7832111e-08
0.013825906
-4.4534396e-08
0.013825916
-4.144849e-08
0.013825926
-3.8570987e-08
0.013825936
-3.5878066e-08
0.013825944
-3.3369815e-08
0.013825953
-3.1021337e-08
0.01382596
-2.8837406e-08
0.013825967
-2.6790035e-08
0.013825974
-2.4891666e-08
0.01382598
-2.310669e-08
0.013825985
-2.1460455e-08
0.01382599
-1.9902233e-08
0.013825995
-1.8480861e-08
0.013825999
-1.7115675e-08
0.013826004
-1.5898391e-08
0.013826007
-1.4691387e-08
0.013826011
-1.3666321e-08
0.013826014
-1.2577908e-08
0.013826017
-1.1746243e-08
0.01382602
-1.0729597e-08
0.013826023
-1.0115813e-08
0.013826025
-9.1163538e-09
0.013826027
-8.7792765e-09
-7.7846079e-09
0.011499554
-1.2005869e-06
0.011500375
-5.2285171e-06
0.011501064
-7.3875692e-06
0.011501355
-7.4567051e-06
0.011501349
-6.5372644e-06
0.011501157
-5.5892326e-06
0.011500821
-4.9106043e-06
0.011500368
-4.4343851e-06
0.011499828
-4.0387204e-06
0.011499234
-3.6653321e-06
0.011498615
-3.313914e-06
0.011497988
-2.9998073e-06
0.011497364
-2.7291137e-06
0.01149675
-2.4969546e-06
0.011496152
-2.2945422e-06
0.011495573
-2.1146432e-06
0.011495017
-1.952911e-06
0.011494484
-1.8068754e-06
0.011493975
-1.6747302e-06
0.011493491
-1.5547899e-06
0.011493031
-1.4454674e-06
0.011492595
-1.3453912e-06
0.011492182
-1.2534495e-06
0.011491792
-1.168749e-06
0.011491423
-1.0905492e-06
0.011491075
-1.0182136e-06
0.011490747
-9.5118554e-07
0.011490438
-8.8897629e-07
0.011490146
-8.3115838e-07
0.011489872
-7.7735569e-07
0.011489614
-7.2723689e-07
0.011489371
-6.805061e-07
0.011489143
-6.3689922e-07
0.011488929
-5.9617766e-07
0.011488728
-5.5812727e-07
0.011488538
-5.2255292e-07
0.011488361
-4.8927825e-07
0.011488194
-4.5814122e-07
0.011488037
-4.2899498e-07
0.01148789
-4.0170352e-07
0.011487753
-3.7614288e-07
0.011487623
-3.5219747e-07
0.011487502
-3.2976202e-07
0.011487389
-3.0873775e-07
0.011487282
-2.8903422e-07
0.011487182
-2.7056612e-07
0.011487089
-2.5325568e-07
0.011487001
-2.3702905e-07
0.011486919
-2.2181865e-07
0.011486842
-2.0755998e-07
0.01148677
-1.9419447e-07
0.011486703
-1.8166584e-07
0.01148664
-1.6992278e-07
0.011486581
-1.5891579e-07
0.011486526
-1.486002e-07
0.011486474
-1.3893262e-07
0.011486426
-1.298737e-07
0.01148638
-1.2138508e-07
0.011486338
-1.1343246e-07
0.011486299
-1.0598212e-07
0.011486262
-9.9003742e-08
0.011486227
-9.2467391e-08
0.011486195
-8.6346664e-08
0.011486165
-8.0615209e-08
0.011486137
-7.5249639e-08
0.01148611
-7.0226473e-08
0.011486086
-6.5525406e-08
0.011486063
-6.1125745e-08
0.011486042
-5.7009493e-08
0.011486022
-5.3158121e-08
0.011486003
-4.9556116e-08
0.011485986
-4.6187093e-08
0.01148597
-4.3037362e-08
0.011485955
-4.0092089e-08
0.011485941
-3.7339707e-08
0.011485928
-3.47669e-08
0.011485915
-3.2363728e-08
0.011485904
-3.0117706e-08
0.011485894
-2.8021071e-08
0.011485884
-2.6061925e-08
0.011485875
-2.4234573e-08
0.011485866
-2.2526595e-08
0.011485858
-2.0935581e-08
0.011485851
-1.9447529e-08
0.011485844
-1.8064384e-08
0.011485838
-1.6767963e-08
0.011485832
-1.5567837e-08
0.011485826
-1.4437908e-08
0.011485821
-1.3400039e-08
0.011485817
-1.24129e-08
0.011485812
-1.1520137e-08
0.011485808
-1.0653029e-08
0.011485804
-9.8928052e-09
0.011485801
-9.1213465e-09
0.011485798
-8.4879581e-09
0.011485795
-7.7872348e-09
0.011485792
-7.288563e-09
0.011485789
-6.6335795e-09
0.011485787
-6.332385e-09
-5.6983149e-09
0.0079772265
-1.0886651e-06
0.0079756999
-3.7009054e-06
0.0079729354
-4.622563e-06
0.0079696884
-4.2097487e-06
0.0079665126
-3.3617369e-06
0.0079635627
-2.6396753e-06
0.0079608165
-2.164838e-06
0.0079582415
-1.8596522e-06
0.0079558356
-1.6330699e-06
0.0079536098
-1.4397962e-06
0.0079515664
-1.2708025e-06
0.0079496947
-1.1283534e-06
0.0079479774
-1.0119824e-06
0.0079463971
-9.168307e-07
0.0079449392
-8.3687571e-07
0.007943592
-7.6751432e-07
0.007942345
-7.0609145e-07
0.0079411892
-6.5121448e-07
0.0079401164
-6.0198938e-07
0.0079391192
-5.5764387e-07
0.0079381911
-5.1746909e-07
0.0079373265
-4.808668e-07
0.0079365203
-4.4736575e-07
0.0079357681
-4.1660313e-07
0.0079350658
-3.8828376e-07
0.0079344097
-3.6215986e-07
0.0079337964
-3.3801194e-07
0.0079332231
-3.1565145e-07
0.0079326868
-2.9491018e-07
0.007932185
-2.756456e-07
0.0079317155
-2.5772818e-07
0.007931276
-2.4104787e-07
0.0079308646
-2.2550173e-07
0.0079304794
-2.1100282e-07
0.0079301187
-1.9746773e-07
0.0079297809
-1.8482669e-07
0.0079294647
-1.7301098e-07
0.0079291685
-1.6196408e-07
0.0079288911
-1.5162858e-07
0.0079286313
-1.4195799e-07
0.0079283881
-1.3290355e-07
0.0079281603
-1.2442682e-07
0.007927947
-1.1648605e-07
0.0079277473
-1.0904905e-07
0.0079275603
-1.0207955e-07
0.0079273853
-9.5550636e-08
0.0079272215
-8.9430646e-08
0.0079270681
-8.3696798e-08
0.0079269246
-7.8321133e-08
0.0079267903
-7.3284517e-08
0.0079266647
-6.8562218e-08
0.0079265472
-6.4137967e-08
0.0079264372
-5.9989633e-08
0.0079263344
-5.61036e-08
0.0079262383
-5.2460094e-08
0.0079261484
-4.9047551e-08
0.0079260644
-4.5848097e-08
0.0079259858
-4.2852155e-08
0.0079259124
-4.0043631e-08
0.0079258439
-3.7414452e-08
0.0079257798
-3.4949938e-08
0.00792572
-3.2643546e-08
0.0079256641
-3.0481969e-08
0.007925612
-2.8459776e-08
0.0079255633
-2.6564732e-08
0.0079255178
-2.4792601e-08
0.0079254754
-2.3132227e-08
0.0079254359
-2.1580196e-08
0.007925399
-2.0126175e-08
0.0079253646
-1.8767685e-08
0.0079253326
-1.7495267e-08
0.0079253027
-1.6307028e-08
0.0079252748
-1.5194163e-08
0.0079252489
-1.4155492e-08
0.0079252247
-1.3182962e-08
0.0079252023
-1.2275747e-08
0.0079251813
-1.1426393e-08
0.0079251618
-1.0634516e-08
0.0079251437
-9.8934467e-09
0.0079251268
-9.2028124e-09
0.0079251112
-8.5567126e-09
0.0079250966
-7.9547233e-09
0.0079250831
-7.3921321e-09
0.0079250705
-6.8677583e-09
0.0079250588
-6.3784462e-09
0.0079250479
-5.9217335e-09
0.0079250379
-5.4970444e-09
0.0079250285
-5.0991959e-09
0.0079250199
-4.7314987e-09
0.0079250118
-4.3843869e-09
0.0079250044
-4.0671931e-09
0.0079249975
-3.7632745e-09
0.0079249911
-3.4903827e-09
0.0079249852
-3.2232863e-09
0.0079249797
-2.9899234e-09
0.0079249747
-2.7554249e-09
0.00792497
-2.5533563e-09
0.0079249657
-2.363311e-09
0.0079249616
-2.1906246e-09
-2.2202888e-09
0.0031303677
0.0031266672
0.0031220447
0.0031178348
0.0031144729
0.0031118331
0.0031096681
0.0031078083
0.003106175
0.0031047351
0.0031034642
0.0031023357
0.0031013236
0.0031004067
0.0030995698
0.0030988022
0.003098096
0.0030974448
0.0030968427
0.003096285
0.0030957675
0.0030952866
0.0030948392
0.0030944226
0.0030940343
0.0030936721
0.003093334
0.0030930184
0.0030927234
0.0030924478
0.00309219
0.003091949
0.0030917235
0.0030915124
0.003091315
0.0030911301
0.0030909571
0.0030907951
0.0030906435
0.0030905015
0.0030903686
0.0030902442
0.0030901277
0.0030900186
0.0030899166
0.003089821
0.0030897316
0.0030896479
0.0030895695
0.0030894963
0.0030894277
0.0030893635
0.0030893036
0.0030892475
0.003089195
0.0030891459
0.0030891001
0.0030890572
0.0030890172
0.0030889798
0.0030889448
0.0030889122
0.0030888817
0.0030888532
0.0030888267
0.0030888019
0.0030887787
0.0030887572
0.003088737
0.0030887183
0.0030887008
0.0030886845
0.0030886693
0.0030886551
0.0030886419
0.0030886297
0.0030886182
0.0030886076
0.0030885977
0.0030885885
0.00308858
0.003088572
0.0030885646
0.0030885577
0.0030885514
0.0030885454
0.0030885399
0.0030885348
0.0030885301
0.0030885257
0.0030885217
0.0030885179
0.0030885144
0.0030885112
0.0030885082
0.0030885055
0.0030885029
0.0030885005
0.0030884984
)
;

boundaryField
{
    top
    {
        type            calculated;
        value           uniform 0;
    }
    inlet
    {
        type            calculated;
        value           nonuniform List<scalar> 10(-0.0031314547 -0.0079773371 -0.011499238 -0.013788461 -0.014914431 -0.01491443 -0.013788461 -0.011499238 -0.0079773376 -0.0031314559);
    }
    outlet
    {
        type            calculated;
        value           nonuniform List<scalar> 10(0.0030884962 0.0079249584 0.011485785 0.01382603 0.014985648 0.014985648 0.013826029 0.011485785 0.0079249581 0.0030884961);
    }
    bottom
    {
        type            calculated;
        value           uniform 0;
    }
    back
    {
        type            empty;
        value           nonuniform 0();
    }
    front
    {
        type            empty;
        value           nonuniform 0();
    }
}


// ************************************************************************* //
