/*--------------------------------*- C++ -*----------------------------------*\
| =========                 |                                                 |
| \\      /  F ield         | OpenFOAM: The Open Source CFD Toolbox           |
|  \\    /   O peration     | Version:  4.1                                   |
|   \\  /    A nd           | Web:      www.OpenFOAM.org                      |
|    \\/     M anipulation  |                                                 |
\*---------------------------------------------------------------------------*/
FoamFile
{
    version     2.0;
    format      ascii;
    class       volVectorField;
    location    "20";
    object      U;
}
// * * * * * * * * * * * * * * * * * * * * * * * * * * * * * * * * * * * * * //

dimensions      [0 1 -1 0 0 0 0];

internalField   nonuniform List<vector> 
1000
(
(0.32422483 9.5503804e-05 0)
(0.32401228 0.00028454011 0)
(0.32354096 0.00031716351 0)
(0.32305555 0.00024595644 0)
(0.3226564 0.00016228256 0)
(0.32234741 0.00010799676 0)
(0.32210155 8.1374965e-05 0)
(0.32189494 6.8128498e-05 0)
(0.32171484 5.8745093e-05 0)
(0.32155608 5.0408194e-05 0)
(0.32141604 4.3339271e-05 0)
(0.32129217 3.7944396e-05 0)
(0.3211817 3.4019355e-05 0)
(0.32108212 3.1042961e-05 0)
(0.32099154 2.8570892e-05 0)
(0.32090863 2.637295e-05 0)
(0.32083247 2.437565e-05 0)
(0.3207623 2.2564404e-05 0)
(0.32069751 2.0926766e-05 0)
(0.32063755 1.944092e-05 0)
(0.32058195 1.8083242e-05 0)
(0.32053033 1.6835196e-05 0)
(0.32048232 1.5684271e-05 0)
(0.32043764 1.4621538e-05 0)
(0.32039601 1.3639478e-05 0)
(0.32035719 1.2730932e-05 0)
(0.32032098 1.1889232e-05 0)
(0.32028716 1.1108273e-05 0)
(0.32025558 1.0382761e-05 0)
(0.32022607 9.7079541e-06 0)
(0.32019848 9.0797351e-06 0)
(0.32017268 8.4943046e-06 0)
(0.32014854 7.9483444e-06 0)
(0.32012596 7.4387512e-06 0)
(0.32010483 6.9628391e-06 0)
(0.32008506 6.5180572e-06 0)
(0.32006655 6.1022165e-06 0)
(0.32004922 5.7131964e-06 0)
(0.320033 5.3491912e-06 0)
(0.32001781 5.00841e-06 0)
(0.32000359 4.6893479e-06 0)
(0.31999028 4.3904801e-06 0)
(0.31997782 4.1105432e-06 0)
(0.31996615 3.8482217e-06 0)
(0.31995523 3.6024469e-06 0)
(0.31994501 3.3720789e-06 0)
(0.31993544 3.1562094e-06 0)
(0.31992648 2.9538388e-06 0)
(0.3199181 2.7641919e-06 0)
(0.31991026 2.5863915e-06 0)
(0.31990292 2.4197746e-06 0)
(0.31989606 2.2635627e-06 0)
(0.31988964 2.1171877e-06 0)
(0.31988363 1.9799602e-06 0)
(0.31987802 1.851394e-06 0)
(0.31987276 1.7308711e-06 0)
(0.31986786 1.6179754e-06 0)
(0.31986327 1.512156e-06 0)
(0.31985898 1.4130579e-06 0)
(0.31985497 1.3201835e-06 0)
(0.31985123 1.2332304e-06 0)
(0.31984773 1.1517527e-06 0)
(0.31984447 1.0754947e-06 0)
(0.31984142 1.0040503e-06 0)
(0.31983857 9.3720435e-07 0)
(0.31983592 8.7459099e-07 0)
(0.31983344 8.1603106e-07 0)
(0.31983113 7.611889e-07 0)
(0.31982897 7.0991681e-07 0)
(0.31982696 6.6191049e-07 0)
(0.31982508 6.1705088e-07 0)
(0.31982333 5.7505566e-07 0)
(0.3198217 5.3583135e-07 0)
(0.31982019 4.9911904e-07 0)
(0.31981877 4.6484979e-07 0)
(0.31981746 4.3277829e-07 0)
(0.31981623 4.0285943e-07 0)
(0.31981509 3.7486149e-07 0)
(0.31981403 3.4876556e-07 0)
(0.31981304 3.2434065e-07 0)
(0.31981212 3.0159873e-07 0)
(0.31981127 2.8030365e-07 0)
(0.31981047 2.6050934e-07 0)
(0.31980974 2.4195156e-07 0)
(0.31980905 2.247446e-07 0)
(0.31980842 2.0857394e-07 0)
(0.31980783 1.936459e-07 0)
(0.31980728 1.795491e-07 0)
(0.31980677 1.6662782e-07 0)
(0.3198063 1.5432353e-07 0)
(0.31980586 1.4317483e-07 0)
(0.31980546 1.3241864e-07 0)
(0.31980508 1.2281374e-07 0)
(0.31980473 1.1342022e-07 0)
(0.31980441 1.0504869e-07 0)
(0.31980411 9.7018122e-08 0)
(0.31980385 8.9444245e-08 0)
(0.31980358 8.3856375e-08 0)
(0.31980338 7.7466991e-08 0)
(0.31980307 8.5423456e-08 0)
(0.82595034 0.00010664741 0)
(0.82612008 0.00047853243 0)
(0.82582958 0.00068370741 0)
(0.82542088 0.00068099024 0)
(0.82505321 0.00057750624 0)
(0.82473986 0.00046951598 0)
(0.82445468 0.00039211248 0)
(0.82418267 0.00034047423 0)
(0.82392348 0.00030115055 0)
(0.82368158 0.00026666231 0)
(0.82345951 0.00023576482 0)
(0.82325678 0.0002092819 0)
(0.82307133 0.00018744065 0)
(0.82290096 0.00016951383 0)
(0.8227439 0.00015445592 0)
(0.82259884 0.00014143308 0)
(0.82246467 0.00012994816 0)
(0.82234043 0.00011972905 0)
(0.82222519 0.00011059483 0)
(0.82211816 0.00010238989 0)
(0.8220186 9.4973884e-05 0)
(0.8219259 8.8229474e-05 0)
(0.82183949 8.2065039e-05 0)
(0.8217589 7.6409996e-05 0)
(0.82168367 7.1207856e-05 0)
(0.82161342 6.6411119e-05 0)
(0.82154777 6.1978776e-05 0)
(0.82148639 5.7875186e-05 0)
(0.821429 5.4069489e-05 0)
(0.82137531 5.0534836e-05 0)
(0.82132508 4.7247779e-05 0)
(0.82127806 4.4187554e-05 0)
(0.82123405 4.1335749e-05 0)
(0.82119284 3.8675843e-05 0)
(0.82115426 3.6193071e-05 0)
(0.82111814 3.3874066e-05 0)
(0.82108431 3.1706808e-05 0)
(0.82105263 2.968032e-05 0)
(0.82102296 2.778468e-05 0)
(0.82099518 2.6010738e-05 0)
(0.82096916 2.4350194e-05 0)
(0.8209448 2.2795341e-05 0)
(0.82092199 2.1339167e-05 0)
(0.82090062 1.9975111e-05 0)
(0.82088063 1.8697193e-05 0)
(0.8208619 1.7499785e-05 0)
(0.82084438 1.637776e-05 0)
(0.82082797 1.5326253e-05 0)
(0.82081262 1.4340831e-05 0)
(0.82079825 1.3417274e-05 0)
(0.82078481 1.2551742e-05 0)
(0.82077223 1.1740548e-05 0)
(0.82076047 1.0980346e-05 0)
(0.82074946 1.0267912e-05 0)
(0.82073917 9.6003289e-06 0)
(0.82072955 8.9747624e-06 0)
(0.82072056 8.3886586e-06 0)
(0.82071215 7.8395249e-06 0)
(0.82070429 7.3251289e-06 0)
(0.82069695 6.843269e-06 0)
(0.82069009 6.3919847e-06 0)
(0.82068368 5.9693347e-06 0)
(0.8206777 5.5736034e-06 0)
(0.82067211 5.2030704e-06 0)
(0.8206669 4.8562275e-06 0)
(0.82066203 4.5315542e-06 0)
(0.82065749 4.2277324e-06 0)
(0.82065325 3.9434102e-06 0)
(0.8206493 3.6774301e-06 0)
(0.82064561 3.4285937e-06 0)
(0.82064218 3.1958944e-06 0)
(0.82063898 2.9782603e-06 0)
(0.82063599 2.7748135e-06 0)
(0.82063321 2.5845956e-06 0)
(0.82063062 2.406856e-06 0)
(0.82062821 2.2407221e-06 0)
(0.82062596 2.0855587e-06 0)
(0.82062387 1.9405611e-06 0)
(0.82062193 1.8052226e-06 0)
(0.82062012 1.6787666e-06 0)
(0.82061844 1.5608268e-06 0)
(0.82061687 1.4506119e-06 0)
(0.82061542 1.3479473e-06 0)
(0.82061407 1.251943e-06 0)
(0.82061281 1.1626911e-06 0)
(0.82061165 1.0790826e-06 0)
(0.82061057 1.0016322e-06 0)
(0.82060956 9.2879841e-07 0)
(0.82060863 8.6176024e-07 0)
(0.82060777 7.982189e-07 0)
(0.82060697 7.4042752e-07 0)
(0.82060623 6.8481193e-07 0)
(0.82060554 6.3530383e-07 0)
(0.8206049 5.8629921e-07 0)
(0.82060432 5.4429721e-07 0)
(0.82060376 5.0072198e-07 0)
(0.82060329 4.6592891e-07 0)
(0.82060276 4.2771395e-07 0)
(0.82060246 4.020377e-07 0)
(0.82060183 3.77675e-07 0)
(1.1905547 8.5638713e-05 0)
(1.1910726 0.00044680233 0)
(1.1910759 0.00071007884 0)
(1.1909527 0.00078546772 0)
(1.1908893 0.00073708587 0)
(1.1908841 0.00065508844 0)
(1.1908832 0.00058683896 0)
(1.1908568 0.00053778292 0)
(1.1908056 0.00049774913 0)
(1.1907418 0.0004592266 0)
(1.1906751 0.00042109114 0)
(1.1906092 0.00038519022 0)
(1.1905444 0.00035300337 0)
(1.1904806 0.00032468322 0)
(1.1904178 0.00029959948 0)
(1.1903566 0.00027705255 0)
(1.1902976 0.00025657924 0)
(1.190241 0.00023792215 0)
(1.190187 0.00022090705 0)
(1.1901356 0.00020536937 0)
(1.1900867 0.00019114327 0)
(1.1900403 0.00017807585 0)
(1.1899964 0.00016603737 0)
(1.1899548 0.00015492106 0)
(1.1899155 0.00014463739 0)
(1.1898784 0.00013510889 0)
(1.1898434 0.00012626709 0)
(1.1898104 0.0001180513 0)
(1.1897793 0.00011040778 0)
(1.18975 0.00010328897 0)
(1.1897225 9.6652598e-05 0)
(1.1896966 9.0460868e-05 0)
(1.1896722 8.467976e-05 0)
(1.1896494 7.9278593e-05 0)
(1.1896278 7.4229526e-05 0)
(1.1896076 6.9507301e-05 0)
(1.1895886 6.5088847e-05 0)
(1.1895708 6.0953123e-05 0)
(1.1895541 5.7080789e-05 0)
(1.1895384 5.3454114e-05 0)
(1.1895237 5.0056714e-05 0)
(1.1895099 4.6873512e-05 0)
(1.1894969 4.3890515e-05 0)
(1.1894848 4.1094801e-05 0)
(1.1894734 3.847433e-05 0)
(1.1894627 3.6017958e-05 0)
(1.1894527 3.371527e-05 0)
(1.1894433 3.1556603e-05 0)
(1.1894346 2.95329e-05 0)
(1.1894263 2.7635751e-05 0)
(1.1894186 2.5857253e-05 0)
(1.1894114 2.4190059e-05 0)
(1.1894047 2.262725e-05 0)
(1.1893984 2.1162392e-05 0)
(1.1893925 1.9789416e-05 0)
(1.1893869 1.8502677e-05 0)
(1.1893818 1.7296835e-05 0)
(1.1893769 1.6166931e-05 0)
(1.1893724 1.5108268e-05 0)
(1.1893682 1.4116481e-05 0)
(1.1893642 1.3187426e-05 0)
(1.1893605 1.2317261e-05 0)
(1.1893571 1.1502337e-05 0)
(1.1893539 1.0739265e-05 0)
(1.1893508 1.0024821e-05 0)
(1.189348 9.3560215e-06 0)
(1.1893454 8.7300247e-06 0)
(1.189343 8.1441946e-06 0)
(1.1893407 7.5960234e-06 0)
(1.1893385 7.0831844e-06 0)
(1.1893365 6.6034729e-06 0)
(1.1893347 6.1548259e-06 0)
(1.189333 5.7353073e-06 0)
(1.1893313 5.3430822e-06 0)
(1.1893298 4.9764698e-06 0)
(1.1893284 4.6338156e-06 0)
(1.1893271 4.3136814e-06 0)
(1.1893259 4.0145454e-06 0)
(1.1893248 3.7352316e-06 0)
(1.1893237 3.4742742e-06 0)
(1.1893228 3.2308003e-06 0)
(1.1893218 3.0032929e-06 0)
(1.189321 2.7912956e-06 0)
(1.1893202 2.5930472e-06 0)
(1.1893195 2.4087182e-06 0)
(1.1893188 2.2359756e-06 0)
(1.1893182 2.0760399e-06 0)
(1.1893176 1.9253989e-06 0)
(1.189317 1.7871083e-06 0)
(1.1893165 1.6553684e-06 0)
(1.1893161 1.5365693e-06 0)
(1.1893156 1.4205438e-06 0)
(1.1893152 1.3198237e-06 0)
(1.1893148 1.215975e-06 0)
(1.1893145 1.1330452e-06 0)
(1.1893142 1.037199e-06 0)
(1.1893139 9.7392065e-07 0)
(1.1893136 8.8145198e-07 0)
(1.1893134 8.4364401e-07 0)
(1.189313 7.5315713e-07 0)
(1.427527 5.4083153e-05 0)
(1.4282701 0.00030456777 0)
(1.4284582 0.00050898736 0)
(1.42852 0.00058844379 0)
(1.4286767 0.000573081 0)
(1.4289252 0.00052481653 0)
(1.4291883 0.00048179425 0)
(1.4294165 0.00045142393 0)
(1.4296031 0.00042706155 0)
(1.4297615 0.00040265165 0)
(1.4299043 0.00037694982 0)
(1.4300364 0.00035144456 0)
(1.4301583 0.00032763052 0)
(1.4302695 0.00030597862 0)
(1.4303704 0.00028623406 0)
(1.4304622 0.00026798998 0)
(1.4305461 0.00025098084 0)
(1.4306233 0.00023508987 0)
(1.4306943 0.00022025887 0)
(1.4307598 0.00020642627 0)
(1.4308203 0.00019351599 0)
(1.4308762 0.00018144978 0)
(1.4309279 0.00017015813 0)
(1.4309759 0.00015958277 0)
(1.4310204 0.00014967363 0)
(1.4310617 0.00014038586 0)
(1.4311002 0.00013167784 0)
(1.4311359 0.0001235111 0)
(1.4311692 0.00011584994 0)
(1.4312003 0.00010866168 0)
(1.4312292 0.00010191598 0)
(1.4312562 9.5584922e-05 0)
(1.4312814 8.9642373e-05 0)
(1.431305 8.4064164e-05 0)
(1.4313269 7.8827566e-05 0)
(1.4313475 7.3911563e-05 0)
(1.4313667 6.929632e-05 0)
(1.4313846 6.4963502e-05 0)
(1.4314014 6.0895736e-05 0)
(1.4314171 5.7076977e-05 0)
(1.4314317 5.3491962e-05 0)
(1.4314455 5.0126617e-05 0)
(1.4314583 4.6967505e-05 0)
(1.4314703 4.400226e-05 0)
(1.4314815 4.1219033e-05 0)
(1.431492 3.8606945e-05 0)
(1.4315019 3.615553e-05 0)
(1.4315111 3.3855211e-05 0)
(1.4315197 3.1696733e-05 0)
(1.4315277 2.9671657e-05 0)
(1.4315352 2.7771794e-05 0)
(1.4315423 2.5989705e-05 0)
(1.4315488 2.4318138e-05 0)
(1.431555 2.2750535e-05 0)
(1.4315607 2.1280468e-05 0)
(1.4315661 1.9902157e-05 0)
(1.4315711 1.8609902e-05 0)
(1.4315758 1.7398609e-05 0)
(1.4315802 1.6263223e-05 0)
(1.4315843 1.5199254e-05 0)
(1.4315881 1.4202215e-05 0)
(1.4315917 1.3268156e-05 0)
(1.431595 1.2393091e-05 0)
(1.4315981 1.1573543e-05 0)
(1.431601 1.0805975e-05 0)
(1.4316037 1.0087326e-05 0)
(1.4316062 9.4144563e-06 0)
(1.4316086 8.7846735e-06 0)
(1.4316108 8.1951928e-06 0)
(1.4316128 7.6436436e-06 0)
(1.4316148 7.1275587e-06 0)
(1.4316165 6.6448473e-06 0)
(1.4316182 6.1933329e-06 0)
(1.4316197 5.7711603e-06 0)
(1.4316212 5.3764255e-06 0)
(1.4316225 5.0074598e-06 0)
(1.4316238 4.6626321e-06 0)
(1.4316249 4.3403969e-06 0)
(1.431626 4.0394207e-06 0)
(1.431627 3.7581882e-06 0)
(1.4316279 3.4957393e-06 0)
(1.4316288 3.250435e-06 0)
(1.4316296 3.0218515e-06 0)
(1.4316304 2.8079546e-06 0)
(1.4316311 2.6091901e-06 0)
(1.4316317 2.4226306e-06 0)
(1.4316323 2.2502377e-06 0)
(1.4316329 2.087265e-06 0)
(1.4316334 1.9384271e-06 0)
(1.4316339 1.7954355e-06 0)
(1.4316343 1.6680696e-06 0)
(1.4316347 1.5413322e-06 0)
(1.4316351 1.4342827e-06 0)
(1.4316354 1.3195699e-06 0)
(1.4316357 1.2330458e-06 0)
(1.4316361 1.1254348e-06 0)
(1.4316363 1.0617919e-06 0)
(1.4316366 9.5569086e-07 0)
(1.4316368 9.1975419e-07 0)
(1.4316371 8.1012697e-07 0)
(1.5440782 1.8380816e-05 0)
(1.5449323 0.0001069164 0)
(1.5452064 0.00018252258 0)
(1.5453514 0.00021492034 0)
(1.5456102 0.00021221172 0)
(1.5459832 0.00019623087 0)
(1.5463827 0.00018147522 0)
(1.5467476 0.00017127766 0)
(1.5470663 0.00016334684 0)
(1.5473523 0.00015533031 0)
(1.5476192 0.00014665116 0)
(1.5478725 0.00013783921 0)
(1.5481122 0.00012948785 0)
(1.5483372 0.00012181493 0)
(1.5485476 0.00011474941 0)
(1.5487443 0.00010814943 0)
(1.5489287 0.00010192261 0)
(1.5491018 9.6034146e-05 0)
(1.5492644 9.0473019e-05 0)
(1.5494172 8.5227003e-05 0)
(1.5495606 8.0277378e-05 0)
(1.5496953 7.5603338e-05 0)
(1.5498218 7.118638e-05 0)
(1.5499405 6.7011384e-05 0)
(1.5500521 6.3065632e-05 0)
(1.5501568 5.9337603e-05 0)
(1.5502551 5.5816335e-05 0)
(1.5503475 5.2491323e-05 0)
(1.5504341 4.935255e-05 0)
(1.5505155 4.6390535e-05 0)
(1.5505919 4.3596244e-05 0)
(1.5506635 4.0961088e-05 0)
(1.5507308 3.8476817e-05 0)
(1.5507939 3.6135557e-05 0)
(1.5508531 3.3929743e-05 0)
(1.5509086 3.1852174e-05 0)
(1.5509607 2.9895936e-05 0)
(1.5510096 2.8054464e-05 0)
(1.5510554 2.6321456e-05 0)
(1.5510984 2.4690956e-05 0)
(1.5511386 2.3157244e-05 1.8754885e-33)
(1.5511764 2.1714924e-05 0)
(1.5512117 2.0358825e-05 0)
(1.5512449 1.9084086e-05 0)
(1.551276 1.7886045e-05 0)
(1.5513051 1.6760329e-05 0)
(1.5513323 1.5702747e-05 0)
(1.5513578 1.4709384e-05 0)
(1.5513817 1.3776484e-05 0)
(1.5514041 1.290054e-05 0)
(1.5514251 1.207819e-05 0)
(1.5514447 1.1306312e-05 0)
(1.551463 1.0581903e-05 0)
(1.5514802 9.9021765e-06 0)
(1.5514963 9.2644533e-06 0)
(1.5515113 8.666261e-06 0)
(1.5515253 8.1052137e-06 0)
(1.5515385 7.5791112e-06 0)
(1.5515508 7.0858284e-06 0)
(1.5515622 6.6234192e-06 0)
(1.551573 6.1899953e-06 0)
(1.551583 5.7838276e-06 0)
(1.5515923 5.4032366e-06 0)
(1.5516011 5.0466971e-06 0)
(1.5516093 4.7127194e-06 0)
(1.5516169 4.3999492e-06 0)
(1.551624 4.1070637e-06 0)
(1.5516306 3.8328702e-06 0)
(1.5516368 3.5761986e-06 0)
(1.5516426 3.3359882e-06 0)
(1.551648 3.1112038e-06 0)
(1.551653 2.9009091e-06 0)
(1.5516577 2.7041963e-06 0)
(1.5516621 2.5202232e-06 0)
(1.5516662 2.3482003e-06 0)
(1.5516699 2.1873677e-06 0)
(1.5516735 2.0370596e-06 0)
(1.5516768 1.8965575e-06 0)
(1.5516798 1.7653317e-06 0)
(1.5516827 1.6426689e-06 0)
(1.5516853 1.5282209e-06 0)
(1.5516878 1.4211897e-06 0)
(1.5516901 1.3214934e-06 0)
(1.5516922 1.2281182e-06 0)
(1.5516942 1.1414295e-06 0)
(1.551696 1.0599257e-06 0)
(1.5516977 9.8475785e-07 0)
(1.5516993 9.1346501e-07 0)
(1.5517007 8.4862721e-07 0)
(1.5517021 7.8593409e-07 0)
(1.5517034 7.3055673e-07 0)
(1.5517046 6.7476743e-07 0)
(1.5517056 6.2838607e-07 2.9540204e-35)
(1.5517067 5.7760287e-07 0)
(1.5517075 5.4037876e-07 0)
(1.5517085 4.9252156e-07 8.8620344e-36)
(1.5517091 4.6549341e-07 0)
(1.5517101 4.1812356e-07 0)
(1.5517105 4.0290273e-07 0)
(1.5517116 3.5328609e-07 0)
(1.544078 -1.8379834e-05 0)
(1.5449322 -0.00010691373 0)
(1.5452063 -0.00018252445 0)
(1.5453513 -0.00021492683 0)
(1.5456102 -0.00021221691 0)
(1.5459832 -0.00019622767 0)
(1.5463827 -0.00018146241 0)
(1.5467476 -0.00017125775 0)
(1.5470663 -0.00016332363 0)
(1.5473523 -0.00015530553 0)
(1.5476192 -0.0001466255 0)
(1.5478725 -0.00013781267 0)
(1.5481122 -0.00012946094 0)
(1.5483372 -0.00012178822 0)
(1.5485476 -0.00011472366 0)
(1.5487443 -0.0001081251 0)
(1.5489287 -0.00010190012 0)
(1.5491018 -9.6013701e-05 0)
(1.5492645 -9.0454772e-05 0)
(1.5494172 -8.5211033e-05 0)
(1.5495606 -8.0263678e-05 0)
(1.5496953 -7.5591892e-05 0)
(1.5498218 -7.117705e-05 0)
(1.5499406 -6.7004088e-05 0)
(1.5500521 -6.3060161e-05 0)
(1.5501568 -5.9333867e-05 0)
(1.5502552 -5.581409e-05 0)
(1.5503475 -5.2490485e-05 0)
(1.5504342 -4.9352862e-05 0)
(1.5505155 -4.639193e-05 0)
(1.5505919 -4.3598472e-05 0)
(1.5506635 -4.0964119e-05 0)
(1.5507308 -3.8480419e-05 0)
(1.5507939 -3.6139742e-05 0)
(1.5508531 -3.3934297e-05 0)
(1.5509087 -3.1857132e-05 0)
(1.5509607 -2.9901095e-05 0)
(1.5510096 -2.805989e-05 0)
(1.5510554 -2.6326965e-05 0)
(1.5510984 -2.4696628e-05 0)
(1.5511386 -2.3162901e-05 -1.8754885e-33)
(1.5511764 -2.1720673e-05 0)
(1.5512117 -2.0364498e-05 0)
(1.5512449 -1.9089796e-05 0)
(1.551276 -1.7891627e-05 0)
(1.5513051 -1.6765914e-05 0)
(1.5513323 -1.5708178e-05 0)
(1.5513578 -1.4714792e-05 0)
(1.5513817 -1.3781709e-05 0)
(1.5514041 -1.290573e-05 0)
(1.5514251 -1.208319e-05 0)
(1.5514447 -1.1311266e-05 0)
(1.551463 -1.0586653e-05 0)
(1.5514802 -9.9068764e-06 0)
(1.5514963 -9.2689515e-06 0)
(1.5515113 -8.6707064e-06 0)
(1.5515253 -8.1094497e-06 0)
(1.5515385 -7.5832961e-06 0)
(1.5515507 -7.0898108e-06 0)
(1.5515622 -6.6273508e-06 0)
(1.551573 -6.1937196e-06 0)
(1.551583 -5.7875049e-06 0)
(1.5515923 -5.4067155e-06 0)
(1.5516011 -5.0501306e-06 0)
(1.5516093 -4.7159508e-06 0)
(1.5516169 -4.4031398e-06 0)
(1.551624 -4.1100618e-06 0)
(1.5516306 -3.8358293e-06 0)
(1.5516368 -3.5789619e-06 0)
(1.5516426 -3.3387173e-06 0)
(1.551648 -3.113747e-06 0)
(1.551653 -2.9034202e-06 0)
(1.5516577 -2.7065186e-06 0)
(1.5516621 -2.5225187e-06 0)
(1.5516661 -2.3503175e-06 0)
(1.5516699 -2.1894614e-06 0)
(1.5516735 -2.0389735e-06 0)
(1.5516767 -1.898455e-06 0)
(1.5516798 -1.7670623e-06 0)
(1.5516827 -1.6443899e-06 0)
(1.5516853 -1.5297773e-06 0)
(1.5516878 -1.422749e-06 0)
(1.55169 -1.3229069e-06 0)
(1.5516922 -1.2295498e-06 0)
(1.5516941 -1.1427264e-06 0)
(1.551696 -1.0612655e-06 0)
(1.5516977 -9.8599387e-07 0)
(1.5516993 -9.1477595e-07 0)
(1.5517007 -8.4986297e-07 0)
(1.5517021 -7.8729309e-07 0)
(1.5517034 -7.3190589e-07 0)
(1.5517046 -6.7633694e-07 0)
(1.5517056 -6.3006836e-07 -2.9540204e-35)
(1.5517067 -5.7961177e-07 0)
(1.5517075 -5.4256909e-07 0)
(1.5517085 -4.9488038e-07 -8.8620344e-36)
(1.5517091 -4.6799552e-07 0)
(1.5517101 -4.2057213e-07 0)
(1.5517105 -4.0583589e-07 0)
(1.5517115 -3.5670801e-07 0)
(1.4275271 -5.4083425e-05 0)
(1.4282702 -0.00030457626 0)
(1.4284582 -0.00050900409 0)
(1.42852 -0.0005884636 0)
(1.4286767 -0.00057309718 0)
(1.4289252 -0.00052482522 0)
(1.4291883 -0.00048179476 0)
(1.4294165 -0.00045141817 0)
(1.429603 -0.00042705131 0)
(1.4297615 -0.00040263827 0)
(1.4299043 -0.00037693383 0)
(1.4300364 -0.00035142661 0)
(1.4301583 -0.00032761123 0)
(1.4302695 -0.0003059588 0)
(1.4303704 -0.00028621438 0)
(1.4304622 -0.00026797103 0)
(1.4305461 -0.00025096304 0)
(1.4306233 -0.00023507351 0)
(1.4306943 -0.00022024416 0)
(1.4307599 -0.00020641333 0)
(1.4308203 -0.00019350489 0)
(1.4308762 -0.00018144047 0)
(1.430928 -0.00017015059 0)
(1.4309759 -0.00015957686 0)
(1.4310204 -0.00014966929 0)
(1.4310618 -0.00014038288 0)
(1.4311002 -0.00013167616 0)
(1.431136 -0.0001235105 0)
(1.4311693 -0.00011585036 0)
(1.4312003 -0.00010866292 0)
(1.4312293 -0.00010191799 0)
(1.4312563 -9.5587509e-05 0)
(1.4312815 -8.9645517e-05 0)
(1.431305 -8.4067691e-05 0)
(1.431327 -7.8831476e-05 0)
(1.4313475 -7.3915694e-05 0)
(1.4313667 -6.93007e-05 0)
(1.4313846 -6.4967988e-05 0)
(1.4314014 -6.0900372e-05 0)
(1.4314171 -5.7081625e-05 0)
(1.4314318 -5.3496688e-05 0)
(1.4314455 -5.0131297e-05 0)
(1.4314583 -4.6972213e-05 0)
(1.4314703 -4.4006874e-05 0)
(1.4314816 -4.122364e-05 0)
(1.4314921 -3.8611433e-05 0)
(1.4315019 -3.6159991e-05 0)
(1.4315111 -3.3859528e-05 0)
(1.4315197 -3.1701008e-05 0)
(1.4315277 -2.9675783e-05 0)
(1.4315352 -2.7775871e-05 0)
(1.4315423 -2.5993621e-05 0)
(1.4315488 -2.4322e-05 0)
(1.431555 -2.2754239e-05 0)
(1.4315607 -2.1284118e-05 0)
(1.4315661 -1.9905642e-05 0)
(1.4315711 -1.8613333e-05 0)
(1.4315758 -1.7401882e-05 0)
(1.4315802 -1.6266444e-05 0)
(1.4315843 -1.5202314e-05 0)
(1.4315881 -1.4205226e-05 0)
(1.4315916 -1.3271012e-05 0)
(1.431595 -1.2395902e-05 0)
(1.4315981 -1.1576197e-05 0)
(1.431601 -1.0808585e-05 0)
(1.4316037 -1.0089787e-05 0)
(1.4316062 -9.4168778e-06 0)
(1.4316086 -8.786944e-06 0)
(1.4316108 -8.1974254e-06 0)
(1.4316128 -7.6457333e-06 0)
(1.4316147 -7.1296141e-06 0)
(1.4316165 -6.6467574e-06 0)
(1.4316182 -6.1952111e-06 0)
(1.4316197 -5.7729018e-06 0)
(1.4316212 -5.3781391e-06 0)
(1.4316225 -5.0090354e-06 0)
(1.4316237 -4.6641834e-06 0)
(1.4316249 -4.3418204e-06 0)
(1.431626 -4.0408262e-06 0)
(1.431627 -3.7594674e-06 0)
(1.4316279 -3.4970078e-06 0)
(1.4316288 -3.2515917e-06 0)
(1.4316296 -3.0230096e-06 0)
(1.4316303 -2.8090088e-06 0)
(1.431631 -2.6102619e-06 0)
(1.4316317 -2.4236221e-06 0)
(1.4316323 -2.2512718e-06 0)
(1.4316328 -2.0882393e-06 0)
(1.4316333 -1.9394773e-06 0)
(1.4316338 -1.7964682e-06 0)
(1.4316342 -1.6692359e-06 0)
(1.4316347 -1.5425426e-06 0)
(1.431635 -1.4357109e-06 0)
(1.4316354 -1.3211315e-06 0)
(1.4316357 -1.2348346e-06 0)
(1.4316361 -1.1273227e-06 0)
(1.4316363 -1.0637862e-06 0)
(1.4316366 -9.5761225e-07 0)
(1.4316367 -9.2187303e-07 0)
(1.4316371 -8.1239682e-07 0)
(1.1905547 -8.5638524e-05 0)
(1.1910726 -0.00044679484 0)
(1.1910759 -0.00071006753 0)
(1.1909527 -0.00078546042 0)
(1.1908893 -0.00073708473 0)
(1.1908841 -0.00065509249 0)
(1.1908832 -0.00058684436 0)
(1.1908568 -0.00053778681 0)
(1.1908056 -0.00049774947 0)
(1.1907418 -0.00045922337 0)
(1.1906751 -0.00042108474 0)
(1.1906092 -0.00038518159 0)
(1.1905445 -0.00035299307 0)
(1.1904806 -0.00032467194 0)
(1.1904178 -0.00029958767 0)
(1.1903567 -0.00027704077 0)
(1.1902976 -0.00025656788 0)
(1.1902411 -0.00023791156 0)
(1.1901871 -0.00022089745 0)
(1.1901357 -0.0002053609 0)
(1.1900868 -0.00019113602 0)
(1.1900404 -0.0001780698 0)
(1.1899964 -0.00016603254 0)
(1.1899548 -0.00015491732 0)
(1.1899155 -0.00014463475 0)
(1.1898784 -0.00013510716 0)
(1.1898434 -0.00012626625 0)
(1.1898104 -0.00011805115 0)
(1.1897794 -0.00011040833 0)
(1.1897501 -0.00010329003 0)
(1.1897226 -9.6654181e-05 0)
(1.1896966 -9.0462769e-05 0)
(1.1896723 -8.4682045e-05 0)
(1.1896494 -7.9281054e-05 0)
(1.1896279 -7.4232246e-05 0)
(1.1896077 -6.9510083e-05 0)
(1.1895887 -6.509181e-05 0)
(1.1895709 -6.0956072e-05 0)
(1.1895541 -5.7083851e-05 0)
(1.1895384 -5.3457102e-05 0)
(1.1895237 -5.0059781e-05 0)
(1.1895099 -4.6876471e-05 0)
(1.1894969 -4.3893519e-05 0)
(1.1894848 -4.1097668e-05 0)
(1.1894734 -3.8477233e-05 0)
(1.1894627 -3.6020713e-05 0)
(1.1894527 -3.3718045e-05 0)
(1.1894433 -3.1559218e-05 0)
(1.1894346 -2.9535538e-05 0)
(1.1894263 -2.7638228e-05 0)
(1.1894186 -2.5859745e-05 0)
(1.1894114 -2.4192385e-05 0)
(1.1894047 -2.2629599e-05 0)
(1.1893984 -2.1164579e-05 0)
(1.1893925 -1.9791621e-05 0)
(1.1893869 -1.8504716e-05 0)
(1.1893818 -1.7298902e-05 0)
(1.1893769 -1.6168839e-05 0)
(1.1893724 -1.51102e-05 0)
(1.1893682 -1.411825e-05 0)
(1.1893642 -1.3189228e-05 0)
(1.1893605 -1.2318909e-05 0)
(1.1893571 -1.1504013e-05 0)
(1.1893538 -1.0740783e-05 0)
(1.1893508 -1.0026377e-05 0)
(1.189348 -9.3574268e-06 0)
(1.1893454 -8.7314628e-06 0)
(1.1893429 -8.1454793e-06 0)
(1.1893406 -7.59735e-06 0)
(1.1893385 -7.0843638e-06 0)
(1.1893365 -6.6046891e-06 0)
(1.1893347 -6.1558925e-06 0)
(1.1893329 -5.7364198e-06 0)
(1.1893313 -5.3440517e-06 0)
(1.1893298 -4.9774805e-06 0)
(1.1893284 -4.6346816e-06 0)
(1.1893271 -4.3145985e-06 0)
(1.1893259 -4.0153257e-06 0)
(1.1893248 -3.73606e-06 0)
(1.1893237 -3.4749661e-06 0)
(1.1893227 -3.2315532e-06 0)
(1.1893218 -3.0039202e-06 0)
(1.189321 -2.7919855e-06 0)
(1.1893202 -2.5936162e-06 0)
(1.1893194 -2.4093697e-06 0)
(1.1893188 -2.236523e-06 0)
(1.1893181 -2.0766819e-06 0)
(1.1893175 -1.9259495e-06 0)
(1.189317 -1.7877875e-06 0)
(1.1893165 -1.6559852e-06 0)
(1.189316 -1.5373493e-06 0)
(1.1893156 -1.4212782e-06 0)
(1.1893152 -1.3207541e-06 0)
(1.1893148 -1.2168825e-06 0)
(1.1893145 -1.1341253e-06 0)
(1.1893141 -1.0383411e-06 0)
(1.1893139 -9.7506844e-07 0)
(1.1893135 -8.8255398e-07 0)
(1.1893134 -8.4454276e-07 0)
(1.189313 -7.5383515e-07 0)
(0.82595039 -0.00010664341 0)
(0.82612014 -0.00047851673 0)
(0.82582964 -0.00068368718 0)
(0.82542093 -0.00068097654 0)
(0.82505326 -0.00057750714 0)
(0.82473992 -0.00046953103 0)
(0.82445474 -0.00039213513 0)
(0.82418271 -0.00034049648 0)
(0.82392352 -0.00030116789 0)
(0.82368161 -0.00026667379 0)
(0.82345954 -0.00023577173 0)
(0.82325681 -0.00020928557 0)
(0.82307136 -0.00018744207 0)
(0.82290099 -0.00016951352 0)
(0.82274393 -0.00015445439 0)
(0.82259887 -0.00014143078 0)
(0.82246471 -0.00012994555 0)
(0.82234046 -0.00011972647 0)
(0.82222523 -0.00011059249 0)
(0.8221182 -0.00010238794 0)
(0.82201864 -9.4972378e-05 0)
(0.82192594 -8.8228454e-05 0)
(0.82183953 -8.2064463e-05 0)
(0.82175894 -7.640988e-05 0)
(0.82168372 -7.1208109e-05 0)
(0.82161346 -6.641174e-05 0)
(0.82154781 -6.1979653e-05 0)
(0.82148644 -5.7876335e-05 0)
(0.82142904 -5.4070796e-05 0)
(0.82137535 -5.0536326e-05 0)
(0.82132511 -4.7249337e-05 0)
(0.82127809 -4.4189228e-05 0)
(0.82123408 -4.1337428e-05 0)
(0.82119288 -3.8677581e-05 0)
(0.82115429 -3.6194762e-05 0)
(0.82111817 -3.3875788e-05 0)
(0.82108434 -3.1708459e-05 0)
(0.82105265 -2.9681979e-05 0)
(0.82102298 -2.7786244e-05 0)
(0.8209952 -2.6012305e-05 0)
(0.82096918 -2.4351663e-05 0)
(0.82094482 -2.2796804e-05 0)
(0.820922 -2.1340523e-05 0)
(0.82090064 -1.9976466e-05 0)
(0.82088064 -1.8698446e-05 0)
(0.82086191 -1.7501037e-05 0)
(0.82084438 -1.6378906e-05 0)
(0.82082798 -1.5327404e-05 0)
(0.82081262 -1.4341885e-05 0)
(0.82079826 -1.3418334e-05 0)
(0.82078481 -1.2552702e-05 0)
(0.82077223 -1.1741521e-05 0)
(0.82076047 -1.0981228e-05 0)
(0.82074946 -1.0268808e-05 0)
(0.82073917 -9.6011308e-06 0)
(0.82072955 -8.9755857e-06 0)
(0.82072055 -8.3893965e-06 0)
(0.82071214 -7.8402829e-06 0)
(0.82070428 -7.3257977e-06 0)
(0.82069694 -6.8439648e-06 0)
(0.82069008 -6.3925996e-06 0)
(0.82068367 -5.9699745e-06 0)
(0.82067769 -5.574158e-06 0)
(0.8206721 -5.203656e-06 0)
(0.82066689 -4.8567358e-06 0)
(0.82066202 -4.5320908e-06 0)
(0.82065748 -4.228187e-06 0)
(0.82065324 -3.9438988e-06 0)
(0.82064928 -3.6778443e-06 0)
(0.8206456 -3.4290389e-06 0)
(0.82064216 -3.1962602e-06 0)
(0.82063896 -2.9786625e-06 0)
(0.82063597 -2.7751438e-06 0)
(0.82063319 -2.5849594e-06 0)
(0.8206306 -2.4071432e-06 0)
(0.82062819 -2.2410486e-06 0)
(0.82062594 -2.0858166e-06 0)
(0.82062385 -1.9408558e-06 0)
(0.8206219 -1.805445e-06 0)
(0.8206201 -1.6790327e-06 0)
(0.82061841 -1.56103e-06 0)
(0.82061685 -1.4508579e-06 0)
(0.82061539 -1.348129e-06 0)
(0.82061404 -1.2521765e-06 0)
(0.82061279 -1.162873e-06 0)
(0.82061162 -1.0793189e-06 0)
(0.82061054 -1.0018205e-06 0)
(0.82060954 -9.290547e-07 0)
(0.82060861 -8.6198923e-07 0)
(0.82060774 -7.9852569e-07 0)
(0.82060694 -7.4071029e-07 0)
(0.8206062 -6.8516089e-07 0)
(0.82060551 -6.3559647e-07 0)
(0.82060488 -5.8659865e-07 0)
(0.82060429 -5.4458777e-07 0)
(0.82060373 -5.0106371e-07 0)
(0.82060326 -4.661802e-07 0)
(0.82060274 -4.2799468e-07 0)
(0.82060243 -4.0190535e-07 0)
(0.8206018 -3.7726008e-07 0)
(0.32422494 -9.5497958e-05 0)
(0.32401235 -0.00028452912 0)
(0.323541 -0.00031715451 0)
(0.32305559 -0.00024595489 0)
(0.32265643 -0.0001622918 0)
(0.32234744 -0.00010801377 0)
(0.32210157 -8.1393995e-05 0)
(0.32189494 -6.8144187e-05 0)
(0.32171484 -5.8755953e-05 0)
(0.32155607 -5.0414962e-05 0)
(0.32141603 -4.3343741e-05 0)
(0.32129216 -3.794754e-05 0)
(0.32118169 -3.4021743e-05 0)
(0.32108211 -3.1044662e-05 0)
(0.32099153 -2.8572118e-05 0)
(0.32090863 -2.6373838e-05 0)
(0.32083247 -2.4376403e-05 0)
(0.3207623 -2.2565121e-05 0)
(0.32069751 -2.0927506e-05 0)
(0.32063756 -1.9441712e-05 0)
(0.32058196 -1.8084064e-05 0)
(0.32053034 -1.6836079e-05 0)
(0.32048233 -1.5685165e-05 0)
(0.32043765 -1.4622487e-05 0)
(0.32039602 -1.3640403e-05 0)
(0.32035721 -1.2731891e-05 0)
(0.32032099 -1.1890139e-05 0)
(0.32028718 -1.1109205e-05 0)
(0.3202556 -1.0383616e-05 0)
(0.32022608 -9.7088228e-06 0)
(0.32019849 -9.0805155e-06 0)
(0.32017269 -8.4950999e-06 0)
(0.32014856 -7.9490394e-06 0)
(0.32012598 -7.4394585e-06 0)
(0.32010485 -6.9634455e-06 0)
(0.32008507 -6.5186856e-06 0)
(0.32006656 -6.1027405e-06 0)
(0.32004923 -5.7137438e-06 0)
(0.32003301 -5.3496383e-06 0)
(0.32001782 -5.0088917e-06 0)
(0.3200036 -4.6897283e-06 0)
(0.31999029 -4.3908964e-06 0)
(0.31997782 -4.1108635e-06 0)
(0.31996616 -3.8485886e-06 0)
(0.31995523 -3.6027173e-06 0)
(0.31994501 -3.3723956e-06 0)
(0.31993544 -3.1564348e-06 0)
(0.31992648 -2.9541203e-06 0)
(0.3199181 -2.7643811e-06 0)
(0.31991026 -2.5866351e-06 0)
(0.31990292 -2.4199308e-06 0)
(0.31989606 -2.2637816e-06 0)
(0.31988964 -2.1173178e-06 0)
(0.31988363 -1.9801502e-06 0)
(0.31987801 -1.8514994e-06 0)
(0.31987276 -1.731044e-06 0)
(0.31986785 -1.618062e-06 0)
(0.31986327 -1.5123064e-06 0)
(0.31985898 -1.4131259e-06 0)
(0.31985497 -1.3203221e-06 0)
(0.31985123 -1.2332847e-06 0)
(0.31984773 -1.1518733e-06 0)
(0.31984447 -1.0755346e-06 0)
(0.31984142 -1.004163e-06 0)
(0.31983857 -9.3723403e-07 0)
(0.31983591 -8.7468877e-07 0)
(0.31983343 -8.1604946e-07 0)
(0.31983112 -7.6128144e-07 0)
(0.31982896 -7.0992763e-07 0)
(0.31982695 -6.6199059e-07 0)
(0.31982508 -6.1705275e-07 0)
(0.31982333 -5.7513267e-07 0)
(0.3198217 -5.3582779e-07 0)
(0.31982018 -4.9918569e-07 0)
(0.31981877 -4.6483938e-07 0)
(0.31981745 -4.3284394e-07 0)
(0.31981622 -4.0284581e-07 0)
(0.31981508 -3.7491912e-07 0)
(0.31981402 -3.4874766e-07 0)
(0.31981303 -3.2440005e-07 0)
(0.31981211 -3.0158075e-07 0)
(0.31981126 -2.8035851e-07 0)
(0.31981047 -2.6049103e-07 0)
(0.31980973 -2.420126e-07 0)
(0.31980904 -2.2473134e-07 0)
(0.31980841 -2.086366e-07 0)
(0.31980782 -1.9363956e-07 0)
(0.31980727 -1.7962661e-07 0)
(0.31980676 -1.6663813e-07 0)
(0.31980629 -1.5441426e-07 0)
(0.31980585 -1.4319132e-07 0)
(0.31980545 -1.3249631e-07 0)
(0.31980507 -1.2276565e-07 0)
(0.31980473 -1.1341397e-07 0)
(0.31980441 -1.0498416e-07 0)
(0.31980411 -9.6966259e-08 0)
(0.31980384 -8.9352448e-08 0)
(0.31980357 -8.3785178e-08 0)
(0.31980337 -7.7160323e-08 0)
(0.31980306 -8.5045815e-08 0)
)
;

boundaryField
{
    top
    {
        type            fixedValue;
        value           uniform (0 0 0);
    }
    inlet
    {
        type            pressureNormalInletOutletVelocity;
        phi             phi;
        rho             rho;