/*--------------------------------*- C++ -*----------------------------------*\
  =========                 |
  \\      /  F ield         | OpenFOAM: The Open Source CFD Toolbox
   \\    /   O peration     | Website:  https://openfoam.org
    \\  /    A nd           | Version:  6
     \\/     M anipulation  |
\*---------------------------------------------------------------------------*/
FoamFile
{
    version     2.0;
    format      ascii;
    class       volScalarField;
    location    "309";
    object      pMean;
}
// * * * * * * * * * * * * * * * * * * * * * * * * * * * * * * * * * * * * * //

dimensions      [0 2 -2 0 0 0 0];

internalField   nonuniform List<scalar> 
9200
(
-0.38829828
-0.37656257
-0.36609886
-0.35683962
-0.34778732
-0.33894937
-0.33040701
-0.32212598
-0.31403666
-0.30606585
-0.29814027
-0.29019144
-0.2821627
-0.27401641
-0.26574424
-0.25738457
-0.24901684
-0.24073126
-0.23354133
-0.23168344
-0.40648114
-0.39229544
-0.37989214
-0.36910813
-0.35867234
-0.34856079
-0.33884512
-0.32946076
-0.32030681
-0.31128492
-0.30230308
-0.29328139
-0.28415949
-0.27490233
-0.26550536
-0.25599815
-0.24641518
-0.23676029
-0.22771122
-0.22141793
-0.42503221
-0.40838147
-0.39408953
-0.38185301
-0.37008828
-0.358722
-0.34780495
-0.33723536
-0.32687999
-0.31662016
-0.30635513
-0.29600752
-0.28552976
-0.2749068
-0.26415547
-0.25331975
-0.24244305
-0.23153787
-0.22100276
-0.21195184
-0.44350432
-0.42441428
-0.40830226
-0.39467482
-0.38159899
-0.3689362
-0.35670945
-0.34478028
-0.3329922
-0.32122248
-0.30938309
-0.29742309
-0.28533129
-0.27313339
-0.26088482
-0.24866025
-0.23652971
-0.22453391
-0.21294087
-0.202495
-0.46125394
-0.43983403
-0.42202109
-0.40707902
-0.39269897
-0.37866723
-0.36498
-0.3514741
-0.33799126
-0.32443251
-0.31075232
-0.29695409
-0.28308524
-0.26922677
-0.25547948
-0.24194965
-0.2287289
-0.21587549
-0.20357806
-0.19234833
-0.47744378
-0.4539087
-0.43457213
-0.41840361
-0.40271012
-0.38720409
-0.3718687
-0.35654283
-0.34110133
-0.32550541
-0.30978445
-0.29401992
-0.27833037
-0.26285303
-0.24772558
-0.2330713
-0.21898422
-0.20551814
-0.19279866
-0.18116614
-0.49105763
-0.46574033
-0.44511855
-0.42782244
-0.4107935
-0.39368747
-0.37650365
-0.35912455
-0.3415028
-0.32369868
-0.30584364
-0.28810979
-0.27068473
-0.25374817
-0.23745374
-0.2219184
-0.20721534
-0.19337224
-0.1804547
-0.16866595
-0.50092308
-0.47428946
-0.45269398
-0.43439331
-0.41601497
-0.39719332
-0.37798745
-0.35837614
-0.33843779
-0.31836568
-0.29840936
-0.27882989
-0.25986832
-0.24172301
-0.22453756
-0.2083989
-0.19334035
-0.17934959
-0.16643353
-0.15467962
-0.50569162
-0.47827259
-0.45600313
-0.43677167
-0.41699208
-0.39634056
-0.37499639
-0.3530913
-0.3308678
-0.30866613
-0.28684591
-0.26573347
-0.24559204
-0.2266074
-0.20888714
-0.19247014
-0.17733965
-0.16343968
-0.1507225
-0.1391763
-0.50401091
-0.47626778
-0.45349216
-0.43328711
-0.41200128
-0.38943673
-0.36595764
-0.34189286
-0.31766076
-0.29372981
-0.27053115
-0.24841044
-0.22761045
-0.20827193
-0.19044687
-0.17411814
-0.15921996
-0.14565869
-0.1333393
-0.12216333
-0.27207076
-0.27657267
-0.27881254
-0.27932633
-0.27886078
-0.2775928
-0.27561142
-0.27300844
-0.26985769
-0.2662155
-0.26212767
-0.25763339
-0.25276737
-0.24756127
-0.24204495
-0.23624891
-0.23020575
-0.22393766
-0.21744503
-0.21081649
-0.27491373
-0.27898734
-0.28091387
-0.28120643
-0.28055672
-0.27913295
-0.27702212
-0.27431199
-0.27107259
-0.26735724
-0.26320921
-0.25866546
-0.25375871
-0.24851851
-0.24297203
-0.23714865
-0.23108837
-0.22481173
-0.2182112
-0.21126039
-0.28045365
-0.28369163
-0.28500852
-0.28486847
-0.2838579
-0.28212945
-0.27976628
-0.27684824
-0.27343797
-0.26958289
-0.26532114
-0.26068523
-0.2557039
-0.25040267
-0.2448037
-0.23893331
-0.23284272
-0.22655148
-0.21975871
-0.21220039
-0.28843311
-0.29047776
-0.2909138
-0.29013794
-0.28859118
-0.28640643
-0.28366232
-0.28042801
-0.27675595
-0.27268523
-0.26824675
-0.26346657
-0.25836761
-0.25296946
-0.24728728
-0.24134194
-0.23519623
-0.22887457
-0.22183031
-0.21342389
-0.29852806
-0.29908497
-0.29840233
-0.29680026
-0.29454664
-0.2917535
-0.28849565
-0.2848301
-0.28079722
-0.27642632
-0.27173955
-0.26675429
-0.26148558
-0.25594583
-0.25014189
-0.24408607
-0.23784864
-0.23146747
-0.2241402
-0.21471011
-0.31040255
-0.30924284
-0.30724044
-0.30463887
-0.30151696
-0.29796746
-0.29406358
-0.28985046
-0.28535578
-0.28059661
-0.27558381
-0.27032504
-0.26482618
-0.25909097
-0.25311696
-0.24690512
-0.24052532
-0.23403486
-0.22640603
-0.21584957
-0.3237581
-0.32070996
-0.31722287
-0.31347046
-0.30933507
-0.30489371
-0.30022189
-0.29535249
-0.29029789
-0.28506215
-0.27964416
-0.27403988
-0.2682443
-0.2622514
-0.25604964
-0.24962834
-0.24305012
-0.23639483
-0.22847341
-0.21680185
-0.33836304
-0.33329782
-0.32819585
-0.32317038
-0.31790443
-0.31246239
-0.30692242
-0.30130456
-0.29560592
-0.28981568
-0.28391793
-0.27789407
-0.27172525
-0.2653933
-0.25887715
-0.25215753
-0.24529471
-0.23841452
-0.23028508
-0.21772816
-0.35405186
-0.34686227
-0.34003778
-0.33364121
-0.3271501
-0.32061509
-0.31411903
-0.30766872
-0.30124327
-0.29481396
-0.28834674
-0.28180449
-0.27514935
-0.26834314
-0.26134273
-0.25410223
-0.24664728
-0.23908668
-0.23018683
-0.21647718
-0.37071589
-0.3612847
-0.35262456
-0.34475278
-0.336929
-0.32918998
-0.32162327
-0.31422032
-0.30694008
-0.29973456
-0.29255164
-0.2853378
-0.27804116
-0.27061156
-0.26299536
-0.25513118
-0.24696524
-0.23829661
-0.2275005
-0.21157738
-0.2033092
-0.19395525
-0.18461938
-0.17537358
-0.16616155
-0.15702419
-0.14801677
-0.13917513
-0.1305282
-0.12210407
-0.11392793
-0.1060211
-0.098401518
-0.091084165
-0.084081093
-0.077401508
-0.071051916
-0.06503626
-0.059356045
-0.054010484
-0.048996642
-0.044309603
-0.039942644
-0.035887418
-0.032134152
-0.028671842
-0.025488459
-0.022571154
-0.01990645
-0.017480445
-0.015278986
-0.013287851
-0.011492901
-0.0098802353
-0.0084363239
-0.0071481307
-0.0060032359
-0.0049899287
-0.0040973846
-0.0033155721
-0.0026361198
-0.0020501875
-0.0015561417
-0.0011369866
-0.00083167442
-0.00052368271
-0.00057711237
2.0074609e-05
-0.0017753193
0.0026478294
-0.20447864
-0.19470711
-0.18525141
-0.17601425
-0.16677642
-0.15760022
-0.14856045
-0.13968917
-0.13101255
-0.12255929
-0.11435496
-0.10642075
-0.098774569
-0.09143147
-0.084403565
-0.077700111
-0.071327662
-0.065290204
-0.05958928
-0.054224123
-0.049191815
-0.04448744
-0.040104269
-0.03603394
-0.032266654
-0.028791377
-0.025596043
-0.022667759
-0.019993006
-0.017557829
-0.015348026
-0.013349323
-0.011547528
-0.0099286885
-0.0084792207
-0.0071860384
-0.0060366717
-0.0050193616
-0.0041232368
-0.0033382205
-0.0026558963
-0.0020673821
-0.0015709838
-0.001149704
-0.00084222183
-0.00053262184
-0.000582326
1.2868805e-05
-0.0017621704
0.0026188374
-0.2068883
-0.19623062
-0.18653869
-0.17736106
-0.16808635
-0.15883401
-0.14973229
-0.14080359
-0.13206685
-0.12355306
-0.11528925
-0.10729648
-0.099592771
-0.092193524
-0.085111132
-0.078355061
-0.071932053
-0.065846257
-0.06009934
-0.054690627
-0.049617256
-0.044874339
-0.040455146
-0.036351288
-0.03255292
-0.029048941
-0.025827204
-0.022874719
-0.020177864
-0.017722571
-0.015494521
-0.013479317
-0.011662646
-0.010030432
-0.0085689723
-0.0072650616
-0.0061061158
-0.005080265
-0.0041765316
-0.003384736
-0.0026963617
-0.0021024309
-0.0016011251
-0.0011754219
-0.0008634854
-0.00055051762
-0.0005928017
-1.3132341e-06
-0.0017362535
0.0025614446
-0.21032236
-0.19824811
-0.18821374
-0.17922588
-0.16994731
-0.16060004
-0.15142677
-0.14243262
-0.13362049
-0.12502662
-0.11668208
-0.10860807
-0.10082293
-0.093342946
-0.086181245
-0.079347829
-0.072849893
-0.066691976
-0.060876056
-0.055401693
-0.050266192
-0.045464775
-0.040990763
-0.036835773
-0.032989924
-0.029442042
-0.026179877
-0.023190313
-0.020459579
-0.017973447
-0.015717424
-0.01367693
-0.011837471
-0.010184783
-0.0087049777
-0.0073846698
-0.0062110981
-0.0051722216
-0.0042568981
-0.003454789
-0.0027572229
-0.0021550737
-0.0016463344
-0.0012139367
-0.00089528451
-0.00057721043
-0.00060843528
-2.2283445e-05
-0.0016981101
0.0024768639
-0.21449243
-0.20044253
-0.18996645
-0.18137133
-0.17217681
-0.16273878
-0.15350527
-0.14446178
-0.13557918
-0.12690099
-0.11846715
-0.11030025
-0.10241914
-0.094841624
-0.087582325
-0.080652317
-0.074059666
-0.067809658
-0.061904886
-0.056345392
-0.051128845
-0.04625073
-0.04170454
-0.037481985
-0.033573202
-0.02996698
-0.026650981
-0.023611957
-0.02083597
-0.018308601
-0.016015143
-0.01394079
-0.012070809
-0.010390695
-0.0088863184
-0.0075440528
-0.0063509022
-0.0052945971
-0.0043637747
-0.003547882
-0.0028380399
-0.0022249221
-0.0017062691
-0.0012649471
-0.00093735786
-0.00061246496
-0.00062909612
-4.9737933e-05
-0.0016486234
0.0023669799
-0.21899917
-0.20249668
-0.19149617
-0.18353106
-0.17457092
-0.16507903
-0.15581074
-0.14675428
-0.13782958
-0.12908163
-0.1205645
-0.11230561
-0.10432501
-0.096642554
-0.089275203
-0.082235936
-0.075534305
-0.069176848
-0.063167205
-0.057506271
-0.052192383
-0.047221532
-0.042587579
-0.038282476
-0.034296499
-0.030618479
-0.02723604
-0.024135834
-0.021303765
-0.018725213
-0.016385237
-0.01426877
-0.012360802
-0.010646542
-0.0091115654
-0.0077419541
-0.0065244229
-0.0054464194
-0.004496307
-0.0036632656
-0.0029381565
-0.002311403
-0.0017804301
-0.0013280212
-0.00098933753
-0.00065595882
-0.00065460893
-8.3291615e-05
-0.0015889302
0.0022342439
-0.22341278
-0.2042079
-0.19257473
-0.1854079
-0.17690766
-0.16747367
-0.15820998
-0.14918109
-0.14026004
-0.13147611
-0.12289584
-0.11455693
-0.10648311
-0.098696805
-0.091218116
-0.084062935
-0.07724315
-0.070767201
-0.064640332
-0.05886476
-0.05343988
-0.048362513
-0.043627143
-0.039226171
-0.035150166
-0.031388118
-0.0279277
-0.024755514
-0.021857339
-0.019218361
-0.016823398
-0.014657104
-0.012704162
-0.010949453
-0.0093782195
-0.0079762015
-0.0067297767
-0.0056260603
-0.0046530921
-0.0037997358
-0.0030565438
-0.0024136422
-0.0018680788
-0.0014025423
-0.0010507173
-0.00070727586
-0.0006847508
-0.00012253043
-0.0015203355
0.0020815294
-0.22745376
-0.20595739
-0.1934219
-0.18681373
-0.17896816
-0.16982706
-0.16065041
-0.15167712
-0.14279955
-0.1340196
-0.12540296
-0.11700026
-0.10884339
-0.10095859
-0.093369535
-0.086095824
-0.079152512
-0.072550596
-0.066297451
-0.060397074
-0.054850311
-0.049655137
-0.04480693
-0.040298759
-0.03612166
-0.032264923
-0.028716368
-0.025462624
-0.022489387
-0.019781682
-0.017324092
-0.015100986
-0.01309672
-0.011295825
-0.0096831703
-0.008244121
-0.0069646742
-0.0058315692
-0.0048324776
-0.003955902
-0.0031920406
-0.0025306797
-0.0019684296
-0.0014878791
-0.0011210018
-0.00076603351
-0.00071935424
-0.00016710625
-0.0014442856
0.0019120881
-0.22878314
-0.20795326
-0.19470104
-0.18767624
-0.18031768
-0.17175796
-0.16285691
-0.1540091
-0.14523224
-0.13652113
-0.12792473
-0.11950167
-0.11129532
-0.1033381
-0.095657938
-0.088278794
-0.081219791
-0.07449537
-0.068115814
-0.062087601
-0.056413665
-0.051093693
-0.046124445
-0.041500073
-0.03721243
-0.033251389
-0.029605151
-0.026260549
-0.023203339
-0.020418478
-0.017890382
-0.015603174
-0.0135409
-0.011687737
-0.01002817
-0.0085471584
-0.0072302851
-0.0060638729
-0.0050351811
-0.0041323045
-0.0033450389
-0.002662783
-0.0020816476
-0.0015841061
-0.0012002099
-0.00083214163
-0.00075850433
-0.00021648804
-0.0013626468
0.0017301589
-0.21908103
-0.20728648
-0.19592424
-0.18748641
-0.18006868
-0.17229558
-0.16400862
-0.1555317
-0.14704358
-0.13857196
-0.13014673
-0.12182685
-0.11366853
-0.10571497
-0.098001888
-0.090560292
-0.083415943
-0.076589088
-0.07009495
-0.063944208
-0.058143343
-0.052694988
-0.047598302
-0.042849357
-0.038441505
-0.034365749
-0.030611101
-0.027164932
-0.024013304
-0.02114129
-0.018533266
-0.016173185
-0.01404483
-0.012132036
-0.010418895
-0.0088899364
-0.0075302916
-0.0063258214
-0.0052633225
-0.004330427
-0.0035164736
-0.0028104151
-0.0022078039
-0.0016909498
-0.0012878547
-0.00090476801
-0.00080173612
-0.00026872112
-0.0012778611
0.001541371
-0.19721496
-0.20124941
-0.19553936
-0.1863317
-0.17850207
-0.17114889
-0.16331693
-0.15514816
-0.14690651
-0.13865642
-0.13042012
-0.12225227
-0.11421308
-0.10635036
-0.098703243
-0.091305903
-0.084187277
-0.077370595
-0.070873766
-0.064709878
-0.05888756
-0.053411335
-0.04828201
-0.043497074
-0.039051083
-0.034936054
-0.031141835
-0.027656476
-0.024466579
-0.021557632
-0.018914317
-0.016520804
-0.014361007
-0.012418831
-0.01067838
-0.0091241477
-0.0077411963
-0.0065152849
-0.0054330821
-0.0044820766
-0.0036514131
-0.0029299148
-0.0023126483
-0.0017823519
-0.0013641908
-0.00097081122
-0.00083911132
-0.00032061906
-0.0011899446
0.0013539712
-0.18640431
-0.19154703
-0.18766828
-0.17869678
-0.17121884
-0.16465268
-0.15765312
-0.15022789
-0.14266896
-0.13505258
-0.12739184
-0.11973743
-0.11215218
-0.10468789
-0.097387541
-0.090289452
-0.083426905
-0.07682743
-0.070513059
-0.064500783
-0.058802887
-0.053427283
-0.048377895
-0.043655054
-0.039255895
-0.035174753
-0.031403552
-0.027932182
-0.024748869
-0.021840521
-0.019193051
-0.016791688
-0.014621247
-0.01266639
-0.010911852
-0.0093426415
-0.0079442336
-0.0067027112
-0.0056049789
-0.004638708
-0.0037930901
-0.0030571153
-0.0024253574
-0.0018816115
-0.0014470951
-0.0010438945
-0.00087862837
-0.00038141682
-0.0010893654
0.0011510818
-0.1773448
-0.17997994
-0.17733161
-0.17011208
-0.1635237
-0.15768432
-0.15148007
-0.14481151
-0.13794053
-0.13096279
-0.12389375
-0.11677818
-0.10967782
-0.10264646
-0.095729404
-0.088967592
-0.082397464
-0.076050016
-0.069950825
-0.064120405
-0.058574487
-0.053324294
-0.048376885
-0.043735523
-0.03940006
-0.035367323
-0.031631503
-0.028184535
-0.025016472
-0.022115841
-0.019469977
-0.017065345
-0.014887827
-0.012922992
-0.011156338
-0.0095735076
-0.0081604915
-0.0069037853
-0.0057906028
-0.0048088607
-0.0039478386
-0.0031967456
-0.0025496289
-0.0019914897
-0.0015391677
-0.0011252578
-0.0009229248
-0.00044908168
-0.00097944139
0.00092809405
-0.16734446
-0.16748801
-0.16532799
-0.16019735
-0.15486711
-0.14980255
-0.14441687
-0.13858437
-0.13247882
-0.12620106
-0.11978202
-0.11326463
-0.10670739
-0.10016484
-0.093684326
-0.087308969
-0.081077925
-0.075025384
-0.069180347
-0.063566834
-0.058204098
-0.05310682
-0.048285393
-0.04374625
-0.03949222
-0.035522896
-0.031835007
-0.028422804
-0.025278425
-0.022392258
-0.01975329
-0.01734943
-0.015167814
-0.013195089
-0.011417666
-0.0098219515
-0.0083945646
-0.0071225089
-0.0059933871
-0.0049954255
-0.0041180408
-0.0033506962
-0.0026869293
-0.0021129575
-0.0016411893
-0.0012147938
-0.0009730352
-0.00052067368
-0.00086784228
0.00069525601
-0.15646678
-0.15484645
-0.15276066
-0.14935381
-0.14533778
-0.14110778
-0.1365453
-0.13157909
-0.12629085
-0.12076364
-0.11504352
-0.10917595
-0.10321533
-0.097215103
-0.091223661
-0.085285579
-0.079441953
-0.073729572
-0.068180476
-0.062821972
-0.057676731
-0.052762907
-0.048094329
-0.043680773
-0.039528262
-0.035639403
-0.032013736
-0.028648099
-0.025536991
-0.022672928
-0.0200468
-0.017648196
-0.015465725
-0.013487306
-0.011700437
-0.010092447
-0.0086507144
-0.0073628666
-0.0062169913
-0.0052017013
-0.0043066149
-0.0035214847
-0.0028393896
-0.0022477081
-0.0017545746
-0.0013132676
-0.0010302414
-0.00059527373
-0.00076050436
0.00046071185
-0.14441351
-0.14209438
-0.14017334
-0.13805158
-0.1352233
-0.1318552
-0.12810401
-0.1239829
-0.11951415
-0.11475372
-0.10975484
-0.10456472
-0.099233359
-0.093811833
-0.08834836
-0.082887877
-0.077472297
-0.072140001
-0.06692529
-0.061858165
-0.056964285
-0.052264989
-0.047777387
-0.043514545
-0.039485717
-0.035696628
-0.032149782
-0.028844791
-0.025778723
-0.022946448
-0.020340977
-0.017953804
-0.015775217
-0.013794607
-0.012000742
-0.010382036
-0.0089267765
-0.0076233425
-0.0064604182
-0.005427094
-0.0045132702
-0.0037090308
-0.0030070789
-0.0023958601
-0.0018795586
-0.001420711
-0.0010952984
-0.00067214804
-0.0006633003
0.00023305429
-0.13150442
-0.12937749
-0.12784559
-0.12664992
-0.12480096
-0.1222648
-0.11929576
-0.11597225
-0.11229241
-0.10828637
-0.1040059
-0.099499474
-0.094811828
-0.089989197
-0.085078393
-0.080123848
-0.075167246
-0.070247407
-0.06539987
-0.060656504
-0.056045294
-0.051590237
-0.047311338
-0.043224694
-0.039342642
-0.035673966
-0.032224146
-0.028995646
-0.025988222
-0.023199243
-0.020624016
-0.018256116
-0.016087697
-0.014109803
-0.012312648
-0.010685892
-0.0092188848
-0.0079008908
-0.0067213117
-0.0056698161
-0.0047366798
-0.0039123681
-0.0031893169
-0.0025569198
-0.0020158774
-0.0015368181
-0.0011687058
-0.00075061189
-0.00058209021
2.1483999e-05
-0.11844671
-0.11693952
-0.1159277
-0.11540413
-0.11432649
-0.11254499
-0.11030628
-0.10771753
-0.10477366
-0.10148741
-0.097902447
-0.094064935
-0.090016235
-0.085797051
-0.081449676
-0.077016833
-0.072539251
-0.068055199
-0.063600363
-0.0592075
-0.054906084
-0.050722077
-0.046677811
-0.042791971
-0.039079649
-0.035552466
-0.032218752
-0.02908377
-0.026149975
-0.023417293
-0.020883429
-0.018544161
-0.016393653
-0.014424752
-0.012629272
-0.010998272
-0.0095223066
-0.0081916632
-0.0069965843
-0.0059274236
-0.0049749348
-0.004130022
-0.0033849837
-0.0027300343
-0.0021629596
-0.0016611192
-0.0012507455
-0.00083025438
-0.00052196343
-0.00016526648
-0.10577177
-0.1049568
-0.10448462
-0.1044716
-0.10399759
-0.10287061
-0.10129093
-0.09936567
-0.097092878
-0.094475899
-0.091548477
-0.08835119
-0.084920826
-0.081293603
-0.077507197
-0.073600181
-0.069610992
-0.065576587
-0.061531909
-0.05750963
-0.053539811
-0.04964958
-0.045862908
-0.042200492
-0.038679712
-0.035314664
-0.032116263
-0.029092392
-0.026248102
-0.023585842
-0.021105722
-0.018805783
-0.016682282
-0.014729977
-0.012942403
-0.011312145
-0.0098310949
-0.0084906861
-0.0072821231
-0.0061965534
-0.0052253151
-0.0043598169
-0.0035923618
-0.0029138691
-0.0023198318
-0.0017929284
-0.0013413861
-0.0009109796
-0.0004864896
-0.00032011815
-0.093756958
-0.093546568
-0.093561174
-0.093950919
-0.093952822
-0.093376068
-0.092372559
-0.091034845
-0.089362985
-0.087355509
-0.085036931
-0.08244061
-0.079597947
-0.076540011
-0.073299916
-0.069912074
-0.066411115
-0.062831457
-0.059206508
-0.055568041
-0.051945844
-0.04836739
-0.044857553
-0.041438388
-0.038129005
-0.034945512
-0.031901034
-0.029005789
-0.026267218
-0.023690161
-0.021277059
-0.019028197
-0.016941945
-0.015015025
-0.013242771
-0.011619391
-0.010138215
-0.0087919332
-0.0075728223
-0.0064729254
-0.0054842711
-0.0045988444
-0.0038090992
-0.0031065701
-0.0024850834
-0.0019313053
-0.0014402166
-0.00099292268
-0.00047716298
-0.00043869426
-0.082537592
-0.082798004
-0.083209769
-0.083915188
-0.084290971
-0.084164961
-0.083650554
-0.082821932
-0.081678473
-0.080215655
-0.078450183
-0.076407873
-0.074114219
-0.071594928
-0.068877959
-0.065993284
-0.062971651
-0.059843978
-0.056641099
-0.053393119
-0.050128804
-0.046875205
-0.043657355
-0.040497993
-0.03741735
-0.034433016
-0.031559879
-0.028810126
-0.026193299
-0.023716408
-0.02138408
-0.019198745
-0.017160845
-0.015269064
-0.013520564
-0.01191123
-0.010435905
-0.0090886202
-0.0078628155
-0.0067515228
-0.0057475597
-0.0048435626
-0.0040322803
-0.003305808
-0.0026568958
-0.0020750465
-0.0015464179
-0.001076303
-0.00049311747
-0.00052007771
-0.072170982
-0.072771913
-0.073482311
-0.074423876
-0.075086202
-0.075319328
-0.075208106
-0.074809734
-0.074121291
-0.073135684
-0.071863122
-0.070322322
-0.068532761
-0.066514716
-0.064290884
-0.061886323
-0.059327552
-0.0566418
-0.053856637
-0.050999659
-0.048097895
-0.045177285
-0.042262322
-0.039375752
-0.036538304
-0.033768488
-0.031082459
-0.028493944
-0.026014233
-0.023652223
-0.021414504
-0.019305496
-0.017327606
-0.015481422
-0.013765917
-0.012178665
-0.01071606
-0.0093735309
-0.0081457512
-0.0070268186
-0.0060104279
-0.0050899409
-0.0042585376
-0.0035088564
-0.0028330971
-0.002222687
-0.0016587596
-0.0011612467
-0.00053120316
-0.00056705876
-0.062666885
-0.063499467
-0.064418018
-0.065523071
-0.06639497
-0.066904533
-0.067115344
-0.067070534
-0.066764565
-0.066188058
-0.065345834
-0.064250312
-0.062915254
-0.061355647
-0.059589006
-0.057635409
-0.055516799
-0.05325639
-0.05087823
-0.048406845
-0.045866839
-0.043282394
-0.040676826
-0.038072246
-0.035489263
-0.032946726
-0.030461531
-0.028048478
-0.0257202
-0.023487139
-0.021357575
-0.019337698
-0.017431723
-0.01564203
-0.013969335
-0.012412873
-0.010970591
-0.009639342
-0.0084150785
-0.0072930226
-0.0062678207
-0.0053336311
-0.004484189
-0.0037126933
-0.0030112359
-0.0023725131
-0.0017756274
-0.0012476237
-0.00058645814
-0.00058571569
-0.054008774
-0.054987428
-0.056038197
-0.057243459
-0.058257923
-0.058970865
-0.059429703
-0.059666394
-0.059673225
-0.059439009
-0.058964202
-0.058255877
-0.057322674
-0.056174676
-0.054824496
-0.053287372
-0.051580648
-0.049723294
-0.047735561
-0.045638619
-0.043454172
-0.041204065
-0.038909855
-0.036592431
-0.03427169
-0.031966248
-0.0296932
-0.027467925
-0.025303958
-0.023212899
-0.02120439
-0.019286125
-0.017463912
-0.015741766
-0.014122031
-0.012605533
-0.011191736
-0.0098789108
-0.0086643097
-0.0075443174
-0.0065145899
-0.0055701461
-0.0047053864
-0.0039141143
-0.0031886676
-0.0025225933
-0.0018950874
-0.0013349457
-0.00065291164
-0.00058433048
-0.046164357
-0.047223551
-0.048346106
-0.049599497
-0.050700163
-0.051553728
-0.052195259
-0.052648028
-0.052902868
-0.052947416
-0.052778777
-0.052399683
-0.051814433
-0.051028795
-0.050050942
-0.048891609
-0.047563725
-0.046082048
-0.044462899
-0.042723876
-0.040883505
-0.038960883
-0.036975317
-0.034945955
-0.032891439
-0.030829609
-0.028777226
-0.026749745
-0.024761132
-0.022823729
-0.020948169
-0.019143336
-0.01741637
-0.015772712
-0.014216178
-0.012749069
-0.011372292
-0.0100855
-0.0088872327
-0.0077750553
-0.0067456726
-0.0057950187
-0.0049182526
-0.0041098441
-0.0033626438
-0.0026708261
-0.0020149874
-0.0014223512
-0.00072455157
-0.0005718463
-0.039090946
-0.040181795
-0.041330011
-0.042590872
-0.043732245
-0.044674247
-0.045442611
-0.046054001
-0.046498523
-0.046763314
-0.0468431
-0.046737282
-0.046446677
-0.045973454
-0.045321962
-0.044498933
-0.043513239
-0.04237565
-0.041098637
-0.039696168
-0.038183438
-0.036576552
-0.034892214
-0.033147406
-0.031359056
-0.029543734
-0.027717369
-0.025894995
-0.024090541
-0.022316647
-0.02058454
-0.018903938
-0.017283013
-0.015728375
-0.014245111
-0.012836839
-0.011505796
-0.010252942
-0.0090780668
-0.0079799042
-0.0069562275
-0.006003926
-0.0051189926
-0.0042966313
-0.003530394
-0.0028150029
-0.0021330819
-0.0015086739
-0.00079622021
-0.00055624998
-0.032739967
-0.033827234
-0.034967282
-0.036205397
-0.037352243
-0.038340749
-0.039189693
-0.039910827
-0.040494156
-0.040926923
-0.041202363
-0.041317492
-0.041270505
-0.04106075
-0.040689447
-0.040159934
-0.039477531
-0.038649392
-0.037684394
-0.036593002
-0.035387074
-0.034079623
-0.032684553
-0.031216383
-0.029689966
-0.028120193
-0.026521718
-0.0249087
-0.02329457
-0.021691829
-0.020111882
-0.018564905
-0.017059759
-0.015603937
-0.014203546
-0.012863325
-0.011586688
-0.010375787
-0.0092315897
-0.0081539606
-0.0071417353
-0.0061927797
-0.0053039741
-0.0044713203
-0.0036891947
-0.0029528767
-0.0022471605
-0.0015925642
-0.00086420426
-0.00054332293
-0.027060363
-0.028119758
-0.029227967
-0.030422066
-0.031548294
-0.03255081
-0.033443276
-0.034233865
-0.034912968
-0.035468421
-0.035892713
-0.036181315
-0.036330602
-0.036337852
-0.036201881
-0.035923298
-0.035504455
-0.034949383
-0.034263748
-0.033454783
-0.032531174
-0.031502883
-0.030380959
-0.029177309
-0.027904467
-0.026575338
-0.025202944
-0.023800172
-0.022379547
-0.020953008
-0.019531731
-0.018125961
-0.016744894
-0.01539658
-0.014087869
-0.012824384
-0.01161052
-0.010449474
-0.0093432807
-0.0082928671
-0.0072980951
-0.0063578051
-0.005469794
-0.0046309099
-0.003836425
-0.0030822307
-0.0023551515
-0.001672622
-0.00092638147
-0.00053609366
-0.022000878
-0.023016724
-0.024077598
-0.025213799
-0.026301124
-0.027293494
-0.028200829
-0.029028737
-0.029768329
-0.030408384
-0.03094123
-0.031361485
-0.031664401
-0.031845876
-0.031903003
-0.031834327
-0.031639852
-0.031321037
-0.03088081
-0.030323563
-0.029655087
-0.028882484
-0.028014023
-0.027058989
-0.026027487
-0.024930245
-0.023778397
-0.02258325
-0.02135607
-0.020107869
-0.018849209
-0.017590033
-0.016339506
-0.015105905
-0.013896516
-0.01271758
-0.011574249
-0.010470578
-0.0094095263
-0.0083929776
-0.0074217555
-0.006495644
-0.0056133576
-0.0047726181
-0.0039696241
-0.0032009464
-0.0024551888
-0.001747503
-0.0009819478
-0.00053506844
-0.017511928
-0.018475162
-0.019479622
-0.020549955
-0.02158653
-0.0225517
-0.023452639
-0.024293131
-0.025065208
-0.025758802
-0.026366509
-0.026882629
-0.027301855
-0.027619292
-0.027830917
-0.027933825
-0.027926272
-0.027807714
-0.02757886
-0.027241705
-0.026799532
-0.026256866
-0.025619404
-0.024893909
-0.024088083
-0.02321041
-0.022269986
-0.021276328
-0.020239183
-0.01916833
-0.018073391
-0.016963659
-0.015847933
-0.014734378
-0.013630411
-0.012542604
-0.011476616
-0.010437148
-0.009427908
-0.0084516001
-0.0075099126
-0.0066035122
-0.0057320026
-0.0048939796
-0.0040865691
-0.0033070802
-0.0025456471
-0.0018159872
-0.0010309051
-0.00053902704
-0.013546668
-0.014453215
-0.015397111
-0.016398231
-0.017377399
-0.018304209
-0.0191838
-0.020018656
-0.020801814
-0.021524456
-0.022179722
-0.022761982
-0.023265802
-0.023685956
-0.02401781
-0.024257542
-0.024402206
-0.024449792
-0.024399302
-0.024250819
-0.02400554
-0.023665781
-0.023234951
-0.022717509
-0.022118879
-0.021445351
-0.020703951
-0.019902303
-0.019048465
-0.018150764
-0.017217623
-0.016257396
-0.01527821
-0.014287815
-0.013293453
-0.012301746
-0.011318598
-0.010349121
-0.0093975739
-0.00846732
-0.0075607852
-0.0066794285
-0.0058236845
-0.0049929952
-0.004185391
-0.003398958
-0.002625169
-0.0018770202
-0.0010735519
-0.00054599584
-0.010062478
-0.010911862
-0.011794674
-0.012726702
-0.013645822
-0.014527819
-0.015376298
-0.0161928
-0.016971367
-0.017704436
-0.018385848
-0.019010299
-0.019572524
-0.020067311
-0.020489809
-0.020835711
-0.021101332
-0.021283672
-0.021380508
-0.021390472
-0.021313113
-0.021148936
-0.020899413
-0.020566978
-0.020154997
-0.019667708
-0.019110142
-0.018488026
-0.017807663
-0.017075798
-0.016299477
-0.015485899
-0.014642269
-0.013775656
-0.012892857
-0.01200027
-0.011103789
-0.0102087
-0.0093196044
-0.0084403394
-0.0075739201
-0.0067224817
-0.0058872045
-0.0050683222
-0.0042647262
-0.0034752942
-0.0026927063
-0.0019297516
-0.0011101574
-0.00055403677
-0.0070209261
-0.0078153536
-0.0086393091
-0.0095050458
-0.010364666
-0.011199216
-0.012011125
-0.012801225
-0.013564501
-0.014294585
-0.014986082
-0.015634154
-0.016233899
-0.016780349
-0.017268716
-0.017694541
-0.018053766
-0.0183428
-0.018558608
-0.018698794
-0.018761678
-0.01874635
-0.018652711
-0.018481501
-0.018234301
-0.017913517
-0.017522342
-0.017064697
-0.016545156
-0.015968848
-0.015341352
-0.014668573
-0.01395662
-0.013211671
-0.01243985
-0.011647101
-0.010839069
-0.01002099
-0.0091975919
-0.0083730003
-0.0075506555
-0.0067332332
-0.005922552
-0.0051195583
-0.004323943
-0.0035353624
-0.002747615
-0.0019736049
-0.0011408782
-0.00056168095
-0.0043892335
-0.0051325076
-0.0059015518
-0.0067055092
-0.0075083374
-0.0082955478
-0.0090686379
-0.0098278901
-0.010569135
-0.011287094
-0.011977129
-0.012634931
-0.013256056
-0.01383592
-0.014369981
-0.014853858
-0.015283393
-0.015654713
-0.015964307
-0.01620911
-0.016386581
-0.016494763
-0.016532348
-0.016498715
-0.016393967
-0.016218939
-0.015975204
-0.01566504
-0.015291399
-0.014857847
-0.014368489
-0.013827881
-0.013240934
-0.012612798
-0.01194876
-0.011254117
-0.01053407
-0.0097936015
-0.0090373726
-0.0082696133
-0.0074940221
-0.0067136706
-0.0059308934
-0.0051472521
-0.0043631588
-0.00357901
-0.0027896497
-0.0020082706
-0.0011657658
-0.00056799384
-0.0021416176
-0.0028391678
-0.0035588983
-0.004307304
-0.0050581556
-0.0058006935
-0.0065356658
-0.0072629115
-0.0079789913
-0.0086795841
-0.0093607502
-0.010018713
-0.010649515
-0.011249015
-0.011813019
-0.012337369
-0.012817991
-0.013250952
-0.013632522
-0.013959253
-0.014228047
-0.014436228
-0.014581598
-0.014662502
-0.01467787
-0.014627257
-0.014510863
-0.014329545
-0.014084803
-0.013778762
-0.013414129
-0.01299414
-0.012522488
-0.01200324
-0.011440746
-0.010839539
-0.010204228
-0.0095393866
-0.0088494447
-0.0081385742
-0.0074105774
-0.0066687785
-0.0059159002
-0.00515401
-0.0043841472
-0.0036073852
-0.0028195365
-0.0020341501
-0.0011851809
-0.00057266464
-0.00025319802
-0.00091053688
-0.0015868647
-0.0022862927
-0.0029906584
-0.0036923128
-0.004391399
-0.0050873849
-0.0057774374
-0.0064580487
-0.0071258959
-0.0077776916
-0.0084099473
-0.0090189683
-0.0096009429
-0.010152006
-0.010668279
-0.011145907
-0.011581122
-0.011970299
-0.012310024
-0.012597154
-0.012828882
-0.0130028
-0.013116953
-0.013169891
-0.013160707
-0.013089072
-0.012955248
-0.012760095
-0.01250506
-0.012192153
-0.011823903
-0.011403303
-0.010933745
-0.010418936
-0.0098628081
-0.0092694195
-0.0086428465
-0.0079870723
-0.0073058692
-0.0066026832
-0.0058805006
-0.0051417811
-0.0043880872
-0.0036210866
-0.0028374675
-0.0020511333
-0.001198885
-0.00057524808
0.0012727297
0.0006481313
7.5107211e-06
-0.00065149268
-0.0013171224
-0.0019841696
-0.002652282
-0.0033206295
-0.0039868651
-0.0046481397
-0.0053016412
-0.0059445013
-0.0065736437
-0.0071857795
-0.0077774638
-0.0083451377
-0.0088851574
-0.0093938271
-0.0098674429
-0.010302344
-0.010694966
-0.0110419
-0.011339952
-0.0115862
-0.011778058
-0.011913334
-0.011990276
-0.012007623
-0.01196464
-0.011861145
-0.011697516
-0.011474698
-0.011194191
-0.010858011
-0.010468654
-0.010029031
-0.0095423941
-0.0090122543
-0.0084422797
-0.0078361895
-0.0071976376
-0.0065300924
-0.0058366995
-0.0051202039
-0.0043825846
-0.0036260044
-0.002847914
-0.0020625194
-0.0012092012
-0.00057693457
0.0024782934
0.001880649
0.0012692747
0.00064342748
9.8653407e-06
-0.00062815157
-0.001269889
-0.0019142683
-0.0025593105
-0.0032026794
-0.0038419686
-0.0044746479
-0.0050979803
-0.0057090183
-0.0063046361
-0.0068815551
-0.0074363651
-0.0079655499
-0.0084655211
-0.0089326589
-0.0093633579
-0.0097540769