/*--------------------------------*- C++ -*----------------------------------*\
  =========                 |
  \\      /  F ield         | OpenFOAM: The Open Source CFD Toolbox
   \\    /   O peration     | Website:  https://openfoam.org
    \\  /    A nd           | Version:  6
     \\/     M anipulation  |
\*---------------------------------------------------------------------------*/
FoamFile
{
    version     2.0;
    format      ascii;
    class       volSymmTensorField;
    location    "309";
    object      UPrime2Mean;
}
// * * * * * * * * * * * * * * * * * * * * * * * * * * * * * * * * * * * * * //

dimensions      [0 2 -2 0 0 0 0];

internalField   nonuniform List<symmTensor> 
9200
(
(6.4253631e-05 -4.9874075e-05 2.3243423e-22 4.0022812e-05 -1.2421672e-22 3.7650781e-39)
(0.00039666802 -0.00031750229 5.976516e-22 0.00025511561 -4.4596808e-22 4.0963085e-39)
(0.00080328045 -0.00062258359 7.1438786e-23 0.00048539366 -5.418198e-23 2.2456878e-39)
(0.001268404 -0.00091777027 -9.0285403e-22 0.00067164859 6.3425114e-22 4.4779832e-39)
(0.0017286594 -0.0011809015 4.4145602e-23 0.00082090791 -3.6215872e-23 6.564298e-40)
(0.0021523118 -0.0014001159 3.8216058e-22 0.00093293767 -2.5302759e-22 1.0384232e-40)
(0.0025171767 -0.0015711295 -8.3498212e-23 0.0010115002 5.7367139e-23 2.974649e-40)
(0.0028051649 -0.0016940318 7.5848483e-23 0.0010629687 -5.0674593e-23 2.0034089e-40)
(0.0030035141 -0.0017710301 3.7115153e-22 0.0010934824 -2.2456405e-22 5.717223e-40)
(0.0031052922 -0.0018054511 2.8939074e-23 0.0011082704 -1.7594238e-23 1.6321566e-42)
(0.0031094952 -0.0018012749 -4.0225639e-22 0.0011116567 2.4614388e-22 3.0735506e-40)
(0.0030210482 -0.0017628464 3.3775942e-22 0.0011071098 -2.1421344e-22 4.2562826e-41)
(0.0028504497 -0.0016946909 -6.0324156e-22 0.0010973191 4.0403815e-22 6.5852514e-40)
(0.0026129129 -0.0016014032 -3.0702874e-22 0.0010843036 2.0962543e-22 4.2649275e-41)
(0.002327025 -0.0014875757 7.9830874e-23 0.0010695305 -5.8722015e-23 5.4118353e-42)
(0.0020130411 -0.0013577346 -3.0206189e-22 0.0010540299 2.3432479e-22 5.7311155e-41)
(0.0016909494 -0.0012162824 2.6640078e-22 0.0010385595 -2.2381566e-22 6.9337405e-41)
(0.0013785165 -0.0010675202 1.9958227e-22 0.0010241498 -1.7547393e-22 2.7954196e-40)
(0.0010909253 -0.00091544788 -6.4234442e-24 0.0010121566 1.401262e-23 5.1345188e-41)
(0.0008450326 -0.00076281546 -3.3984997e-24 0.00099248439 1.2303714e-23 6.3645028e-41)
(8.4828142e-05 -5.6703867e-05 2.4188718e-23 3.8923638e-05 -9.2469997e-24 6.6264173e-41)
(0.00050621432 -0.00035081162 6.3292497e-22 0.00024386801 -4.1169553e-22 4.3690089e-39)
(0.0010080834 -0.00067778072 -2.0425987e-22 0.00045833031 1.3705866e-22 2.3729237e-39)
(0.0015479544 -0.0009809532 -1.6212777e-21 0.00062870348 1.012487e-21 1.0362934e-38)
(0.0020520972 -0.001239643 -5.6847507e-23 0.00076236352 3.5907864e-23 1.3072997e-40)
(0.0024835649 -0.0014433582 1.2576674e-21 0.00086039377 -7.4079904e-22 3.430166e-39)
(0.0028192497 -0.0015901799 -5.1857416e-22 0.00092771145 3.0220522e-22 1.1813841e-40)
(0.003044092 -0.0016829156 -1.5676677e-22 0.00097124555 9.0565769e-23 4.2180683e-41)
(0.0031515148 -0.0017263372 5.9739709e-22 0.00099732518 -3.471316e-22 3.2276741e-40)
(0.0031432628 -0.001726021 -7.2682678e-22 0.0010111232 4.2921506e-22 3.7115143e-40)
(0.0030287507 -0.001687817 -5.1746526e-22 0.0010166977 3.1318914e-22 4.5738435e-40)
(0.0028240451 -0.0016175417 1.1223722e-21 0.0010170737 -7.0643555e-22 2.3270022e-39)
(0.0025502824 -0.0015208225 5.2472475e-22 0.001014351 -3.5149112e-22 1.6417224e-40)
(0.0022315545 -0.0014030433 -8.3093983e-22 0.0010098351 5.9420514e-22 8.0846185e-40)
(0.0018925009 -0.0012693428 1.5003579e-22 0.0010041643 -1.1563996e-22 6.7180204e-41)
(0.001555944 -0.0011246206 -3.347028e-22 0.0009974215 2.8904725e-22 1.7996498e-40)
(0.0012408705 -0.00097353708 -1.3856552e-22 0.0009892623 1.410106e-22 5.6448966e-41)
(0.00096098461 -0.00082041958 4.2969162e-22 0.00097908802 -4.7544513e-22 9.1352771e-40)
(0.00072471761 -0.00066876764 2.0489654e-22 0.00096510463 -2.6996406e-22 1.7443715e-40)
(0.00053793531 -0.00052204369 -8.9307722e-23 0.00093816052 1.1021988e-22 1.3012615e-39)
(0.00010807951 -6.156729e-05 -2.0367756e-22 3.5857207e-05 8.668867e-23 1.7024138e-39)
(0.00062317186 -0.00037030961 -3.3997287e-22 0.00022063445 1.8886803e-22 1.7746053e-39)
(0.0012188299 -0.00070462785 -3.8709359e-22 0.000409744 2.2555383e-22 4.4357998e-39)
(0.0018220758 -0.0010022035 1.2989828e-23 0.00055777235 -7.1343756e-24 4.8172848e-43)
(0.0023504116 -0.0012449837 1.3048369e-23 0.00067222184 -6.2480088e-24 3.1873082e-39)
(0.0027643481 -0.0014250047 4.4053961e-22 0.00075545149 -2.3457372e-22 8.9145202e-40)
(0.0030437658 -0.0015433674 4.3400971e-23 0.00081310222 -2.1581635e-23 3.6898347e-40)
(0.0031811755 -0.0016057195 -7.5258672e-22 0.00085205909 4.0308282e-22 2.3645435e-40)
(0.003180679 -0.0016191411 8.9352086e-22 0.0008782313 -4.9038608e-22 4.4647908e-40)
(0.0030564641 -0.0015909265 2.9498798e-22 0.00089615863 -1.698222e-22 4.8839521e-40)
(0.0028307103 -0.0015280971 -8.1514063e-22 0.00090911096 4.8990347e-22 1.0111516e-39)
(0.0025309951 -0.0014372021 -2.5690352e-22 0.00091922088 1.6532348e-22 3.299286e-40)
(0.0021872446 -0.0013243113 9.236443e-23 0.00092764153 -6.39939e-23 8.926765e-40)
(0.0018285543 -0.0011951086 2.2427477e-22 0.00093472354 -1.7240473e-22 1.2889675e-40)
(0.0014803513 -0.0010549962 -7.9144048e-23 0.00094019453 6.7877252e-23 9.8325905e-41)
(0.0011623239 -0.00090915076 1.8434553e-22 0.00094333837 -1.8254713e-22 7.8424324e-41)
(0.00088737867 -0.00076250417 -1.2734198e-22 0.00094317275 1.4842966e-22 3.024698e-41)
(0.00066164577 -0.00061961301 -2.6192664e-22 0.00093856039 3.5814632e-22 7.3118415e-40)
(0.00048548791 -0.00048432775 -9.7097725e-24 0.0009280004 1.0318408e-23 6.5496843e-40)
(0.00035564277 -0.00036023031 9.156798e-23 0.00090830768 -1.9514096e-22 7.5706193e-41)
(0.00013323108 -6.3746737e-05 -1.6182404e-22 3.1095855e-05 5.9625314e-23 8.4550579e-40)
(0.00074156132 -0.00037273989 2.4918584e-22 0.00018781522 -1.2222127e-22 1.581386e-40)
(0.0014228805 -0.00069851564 2.2099115e-22 0.0003450572 -1.0893444e-22 1.8271393e-40)
(0.0020721371 -0.00097759481 4.8177151e-22 0.00046719613 -2.2991538e-22 1.9700389e-39)
(0.0026010218 -0.0011955539 4.2469883e-22 0.00056151699 -2.015786e-22 8.7647318e-40)
(0.0029716634 -0.0013477446 -7.4903867e-22 0.00063129162 3.5550646e-22 6.7007216e-40)
(0.003171891 -0.0014383011 -4.1996022e-22 0.00068222169 2.0280348e-22 1.9079345e-40)
(0.003206591 -0.0014751041 0 0.00072045122 0 0)
(0.003094325 -0.0014666043 4.6064556e-22 0.00075085155 -2.4949062e-22 2.4556507e-39)
(0.0028637256 -0.0014207572 -2.0086868e-22 0.00077681072 1.1797981e-22 9.3021495e-40)
(0.0025494373 -0.0013447607 -1.1820051e-21 0.00080039629 7.0251992e-22 8.2951907e-40)
(0.0021878585 -0.0012451104 -1.5158816e-22 0.00082254189 9.5193219e-23 1.6630556e-40)
(0.0018130704 -0.0011278075 5.8700499e-22 0.0008432589 -4.3470987e-22 1.1219872e-39)
(0.0014535123 -0.00099856952 3.2379514e-23 0.0008618719 -2.1189401e-23 4.6268413e-40)
(0.0011298825 -0.00086293288 -9.1451176e-24 0.00087726676 8.8958126e-24 3.2661954e-43)
(0.00085446891 -0.00072620413 9.8755542e-23 0.00088814665 -1.1338818e-22 5.7493741e-41)
(0.00063180248 -0.00059328023 2.2627751e-25 0.00089325989 2.330041e-24 6.6992536e-41)
(0.00046025909 -0.00046840078 -1.7655586e-22 0.00089151149 2.9450795e-22 1.7678429e-40)
(0.00033403858 -0.00035488494 -9.8699174e-23 0.00088236534 2.0520682e-22 1.2279982e-40)
(0.00024528875 -0.0002551881 5.0682143e-23 0.00086702945 -1.5119193e-22 7.6342764e-40)
(0.00015913597 -6.2627853e-05 1.2239297e-22 2.5085591e-05 -3.8998239e-23 3.3261203e-40)
(0.0008539387 -0.00035597559 5.1011951e-22 0.00014876125 -2.0346604e-22 2.9967738e-39)
(0.0016059072 -0.0006574599 4.0395976e-22 0.00027106954 -1.6635421e-22 1.9018081e-40)
(0.0022790185 -0.00090725443 4.4892529e-22 0.00036661096 -1.8332198e-22 1.0542523e-39)
(0.002783571 -0.0010951642 -6.9240492e-22 0.00044203087 2.858377e-22 1.6614365e-39)
(0.0030886014 -0.001219931 2.7117465e-23 0.0005009241 -8.7246125e-24 1.5804197e-40)
(0.0031950538 -0.0012878675 3.9861259e-23 0.00054832352 -1.7325108e-23 1.3331705e-42)
(0.0031240762 -0.0013077151 5.6858853e-22 0.00058901677 -2.6403537e-22 5.9452947e-40)
(0.0029104758 -0.0012878371 7.7025528e-23 0.00062637174 -3.795626e-23 5.3706506e-42)
(0.0025965564 -0.0012355874 -2.0756037e-22 0.00066228843 1.1711988e-22 3.2142451e-40)
(0.0022261623 -0.0011574475 6.7727555e-22 0.00069740747 -4.1830167e-22 2.2428813e-39)
(0.0018394338 -0.001059382 -4.941133e-22 0.00073134296 3.2431958e-22 1.947848e-40)
(0.0014688662 -0.00094717555 -9.3478965e-22 0.00076295462 7.2649153e-22 1.3804603e-39)
(0.001137142 -0.00082658362 -3.1057564e-23 0.00079065644 2.8418908e-23 2.9165335e-42)
(0.00085683967 -0.00070324137 3.3616305e-22 0.0008127407 -3.7360625e-22 1.1144608e-39)
(0.00063170667 -0.00058238024 0 0.00082768944 0 0)
(0.0004589095 -0.00046846747 4.2291219e-23 0.00083440326 -6.0714807e-23 2.8984587e-41)
(0.00033159647 -0.00036490837 -2.1531108e-23 0.00083225155 4.6673411e-23 4.3091774e-41)
(0.00024110799 -0.00027391414 -2.1681891e-23 0.00082163996 4.7143044e-23 1.1356642e-41)
(0.00017862723 -0.00019648021 1.0589404e-23 0.00080599612 -4.4181478e-23 7.7446619e-41)
(0.00018439237 -5.7840437e-05 2.6772152e-22 1.845219e-05 -6.8981693e-23 1.3451017e-39)
(0.00095241687 -0.00031969305 2.6407443e-23 0.00010760738 -8.6678785e-24 2.4905748e-42)
(0.001754178 -0.00058307017 -7.5873149e-23 0.00019547598 2.5614717e-23 1.1029296e-41)
(0.002426572 -0.00079621995 7.8923188e-23 0.0002661562 -2.5369208e-23 2.1785425e-40)
(0.0028840896 -0.00095309498 -4.7746366e-22 0.00032523626 1.6729278e-22 4.0886084e-40)
(0.0031082643 -0.0010549412 -2.3025493e-22 0.00037599876 8.3696486e-23 3.701239e-41)
(0.0031173355 -0.0011085267 1.6435798e-22 0.0004222355 -5.0356921e-23 1.1640621e-39)
(0.0029504737 -0.0011215635 -5.9151487e-24 0.00046702603 6.7057978e-24 9.1054556e-41)
(0.0026576966 -0.0011007632 -3.9107822e-22 0.00051203819 1.9363644e-22 9.6340079e-40)
(0.0022913702 -0.0010518681 6.8020445e-22 0.00055758338 -3.5243926e-22 2.8555063e-40)
(0.0018992173 -0.00098021022 -1.8533011e-23 0.00060284864 2.5733091e-23 5.0016384e-40)
(0.0015194074 -0.0008912142 -5.4331972e-22 0.0006461841 3.9311282e-22 1.3826645e-39)
(0.0011781223 -0.00079060785 0 0.00068546035 0 0)
(0.00088954226 -0.00068427267 1.3355402e-22 0.0007184673 -1.5038501e-22 7.4062782e-40)
(0.00065770582 -0.00057782469 6.9174786e-24 0.00074329773 -1.4236688e-23 4.0516323e-41)
(0.0004793929 -0.00047611013 -1.6293601e-22 0.00075865411 2.5426773e-22 8.6190172e-40)
(0.00034718276 -0.0003827956 -3.690966e-23 0.00076399507 6.5674437e-23 1.8080351e-41)
(0.0002520564 -0.00030018377 -1.1457759e-23 0.00075945646 3.072881e-23 2.8901808e-41)
(0.00018514115 -0.00022932023 -1.4917214e-23 0.00074629603 4.1464134e-23 1.1284169e-41)
(0.00013860909 -0.00017013463 2.7075955e-23 0.0007286925 -1.0165236e-22 1.0766411e-40)
(0.00020750011 -4.935087e-05 1.0317305e-22 1.1939451e-05 -1.9851639e-23 2.1301801e-40)
(0.001029682 -0.00026560569 -7.4168256e-22 6.875513e-05 1.8662847e-22 4.6323372e-39)
(0.0018564271 -0.00048052146 -6.5014532e-23 0.00012582047 1.8483165e-23 4.3254104e-40)
(0.0025039133 -0.00065378027 -1.9697636e-22 0.00017505565 5.8086822e-23 2.1754305e-39)
(0.0028969172 -0.00078252407 -1.4979123e-22 0.00022072611 4.1522361e-23 3.0141552e-41)
(0.0030342322 -0.00086865473 -8.4856359e-22 0.00026536528 2.6253324e-22 3.9987524e-40)
(0.0029534503 -0.00091711928 -4.1673272e-22 0.00031131601 1.4646229e-22 3.2170529e-40)
(0.0027107095 -0.00093269058 8.0874113e-22 0.00035996373 -3.0384203e-22 2.6159374e-40)
(0.0023674738 -0.0009192592 1.3883456e-22 0.00041136162 -7.1119517e-23 3.2977336e-40)
(0.0019807218 -0.00088054374 -1.7856124e-22 0.000464329 8.0821312e-23 1.1297758e-40)
(0.001596364 -0.00082084971 8.3373012e-23 0.00051672031 -3.0755519e-23 4.2312506e-40)
(0.0012460974 -0.00074538105 -1.6346791e-23 0.00056581274 2.1185822e-23 1.0725137e-40)
(0.00094742209 -0.00066002493 0 0.00060878528 0 0)
(0.0007059805 -0.00057075352 8.9884946e-23 0.00064320031 -9.2756958e-23 2.618871e-41)
(0.00051907398 -0.00048291258 -1.9204193e-22 0.00066738444 2.4840773e-22 3.5555894e-40)
(0.00037927019 -0.00040065632 -6.2494292e-23 0.00068063439 9.4741547e-23 3.0777483e-41)
(0.00027736207 -0.00032667276 1.0880843e-22 0.00068319553 -2.1480156e-22 4.239529e-40)
(0.00020436776 -0.00026222873 -2.3557186e-23 0.00067601989 3.1469126e-23 9.0771016e-41)
(0.00015254941 -0.00020751289 -1.3381443e-24 0.00066097242 -2.8277549e-24 1.018017e-41)
(0.00011565624 -0.00016194058 2.490868e-23 0.00064205657 -7.2900118e-23 9.4112919e-42)
(0.00022702893 -3.7493753e-05 7.4996528e-23 6.3094802e-06 -9.8379204e-24 1.3339947e-40)
(0.0010799254 -0.00019732204 -6.8913542e-22 3.6252208e-05 1.2413656e-22 2.1253357e-39)
(0.0019052428 -0.00035787053 -5.3831242e-22 6.8442272e-05 1.066978e-22 2.5426614e-39)
(0.002506641 -0.00049204681 7.7326168e-22 0.00010040059 -1.6118249e-22 6.2442112e-40)
(0.0028248923 -0.00059832629 5.8564636e-22 0.00013513003 -1.3132204e-22 1.3068415e-40)
(0.0028788623 -0.00067677136 -4.3093944e-22 0.00017439762 9.4747276e-23 1.3509314e-39)
(0.0027247577 -0.00072823911 1.4005467e-22 0.0002193493 -5.3003825e-23 5.7172357e-40)
(0.002431938 -0.00075317326 8.250246e-22 0.00027002236 -2.9060798e-22 6.4588255e-40)
(0.002067788 -0.00075220442 3.6268286e-22 0.00032512932 -1.4163884e-22 8.2026573e-41)
(0.0016881599 -0.00072726061 -3.5753061e-22 0.00038219864 1.8091846e-22 2.1087584e-40)
(0.0013326869 -0.00068210228 -4.8603387e-22 0.00043795745 2.8695619e-22 2.5404194e-40)
(0.0010243377 -0.00062207195 -1.3285282e-23 0.0004888916 9.5044356e-24 2.6496588e-43)
(0.00077200953 -0.00055327583 1.405195e-22 0.00053186023 -1.2158992e-22 4.1221425e-41)
(0.00057463421 -0.00048158107 -5.15848e-24 0.00056460192 1.5916568e-23 6.180853e-41)
(0.00042541305 -0.00041179513 -5.694862e-24 0.00058601227 2.5927447e-23 1.6728635e-40)
(0.00031526093 -0.00034723483 4.4447996e-24 0.00059615614 -3.3903304e-23 3.0219494e-40)
(0.00023510041 -0.00028969745 5.0123734e-23 0.00059604017 -9.7814274e-23 8.9072355e-41)
(0.00017707943 -0.00023972975 -2.8766088e-23 0.00058723613 8.2363227e-23 2.3125819e-40)
(0.00013497081 -0.00019709885 -7.3352974e-23 0.00057186479 1.9987744e-22 4.5006224e-40)
(0.00010402009 -0.00016113521 2.4262736e-23 0.00055323874 -5.8519026e-23 1.0249787e-41)
(0.00024184995 -2.2946449e-05 -1.9550949e-22 2.2341563e-06 1.6297507e-23 3.986744e-40)
(0.0010996392 -0.00011989394 -1.5534798e-22 1.3233957e-05 1.6621484e-23 4.3049115e-40)
(0.0018978279 -0.00022495156 1.1847076e-21 2.7676927e-05 -1.4999125e-22 5.2559864e-39)
(0.0024370891 -0.00032421475 8.8511518e-22 4.6421671e-05 -1.2744307e-22 5.761981e-40)
(0.0026784441 -0.00041496078 3.9810611e-22 7.1745251e-05 -6.1976899e-23 2.8259699e-40)
(0.0026608279 -0.00049284478 8.0414855e-23 0.00010514742 -1.6308923e-23 2.7425589e-42)
(0.0024555187 -0.00055295752 -7.5687888e-22 0.00014721578 1.6637337e-22 1.181751e-39)
(0.0021395083 -0.00059088078 0 0.00019716419 0 0)
(0.0017802195 -0.00060429672 -4.6543858e-22 0.00025268997 1.9877844e-22 9.7799801e-40)
(0.0014277746 -0.00059399218 -8.0338858e-23 0.00031025439 5.1960796e-23 2.2117616e-40)
(0.0011131709 -0.00056371408 2.2903149e-22 0.00036570517 -1.3115221e-22 5.5019319e-41)
(0.00085064578 -0.00051912807 2.4871552e-23 0.00041506432 -3.1033598e-23 1.216631e-40)
(0.00064222078 -0.0004664313 -1.0990169e-22 0.00045523667 1.0600999e-22 1.4217754e-40)
(0.00048260878 -0.00041114372 -8.3156581e-23 0.00048443883 1.0701722e-22 3.0333742e-40)
(0.00036328762 -0.00035738943 5.3330438e-23 0.00050227651 -5.3701354e-23 3.7368722e-41)
(0.0002752544 -0.0003077134 7.4081544e-23 0.00050952298 -9.4470581e-23 3.490494e-41)
(0.00021051914 -0.00026328774 -6.6254921e-23 0.00050771819 1.0820656e-22 3.2646182e-41)
(0.00016267619 -0.00022431246 -8.9233059e-23 0.00049873477 1.8876191e-22 3.7672512e-40)
(0.00012691739 -0.00019048388 6.7322485e-24 0.00048461774 -1.5207855e-24 4.4002187e-41)
(9.9705238e-05 -0.00016126075 1.2264917e-23 0.00046778711 -4.0203483e-23 5.2035172e-41)
(0.00025110024 -6.6209366e-06 -1.2898428e-22 2.0025417e-07 3.2867816e-24 1.9501462e-40)
(0.0010876585 -3.9180417e-05 5.5261357e-22 1.5466022e-06 -1.9750114e-23 1.082024e-39)
(0.0018359732 -9.2217182e-05 8.4468865e-22 5.4591921e-06 -5.1778668e-23 7.8446569e-39)
(0.0023037454 -0.00016309005 -9.9405473e-22 1.4357573e-05 8.5105565e-23 2.1626353e-39)
(0.0024737288 -0.00024505738 3.6052351e-22 3.0845811e-05 -3.9191481e-23 5.5019104e-41)
(0.0024019064 -0.0003273742 1.4913697e-22 5.7070403e-05 6.4301627e-25 1.9948604e-39)
(0.0021690882 -0.00039868201 3.9108247e-23 9.3866923e-05 -7.8492487e-24 7.2967439e-43)
(0.0018538128 -0.00045008766 -5.5780634e-22 0.00014013857 1.2766217e-22 6.7577837e-40)
(0.0015186361 -0.00047718321 -1.2688468e-23 0.00019284437 4.3451526e-24 1.0992823e-43)
(0.0012052887 -0.00048037868 2.090528e-22 0.00024759914 -1.0746841e-22 2.5728873e-40)
(0.00093586906 -0.00046376782 1.6494679e-23 0.00029965397 -1.6545327e-23 3.6688794e-41)
(0.00071740741 -0.00043330019 -7.5257619e-23 0.00034490027 2.0523553e-23 4.7464846e-40)
(0.00054738335 -0.00039503889 -1.6855465e-22 0.00038057376 1.3578679e-22 5.4522899e-41)
(0.00041853965 -0.00035398308 -1.1144042e-24 0.00040550283 1.2902767e-23 6.1811261e-41)
(0.00032227155 -0.00031358501 5.7377737e-23 0.00041993911 -7.4255192e-23 6.0742028e-41)
(0.00025056288 -0.00027581272 3.8303633e-23 0.00042513431 -5.9841391e-23 5.880146e-41)
(0.00019681529 -0.00024150263 8.8883049e-24 0.00042285068 -2.8267842e-23 9.4901327e-41)
(0.00015600504 -0.0002107876 -6.1014369e-23 0.00041495528 8.5300332e-23 7.6930387e-41)
(0.00012450551 -0.00018347593 -1.2234088e-23 0.00040319316 -7.8086917e-24 3.2535901e-40)
(9.9707492e-05 -0.00015918896 3.4132483e-23 0.00038910614 -1.0312207e-22 5.3772031e-40)
(1.6682582e-06 -2.0853175e-07 1.6667876e-23 2.5463172e-07 -3.3346746e-24 1.9055626e-40)
(7.8625675e-06 -3.2909843e-06 -2.3785556e-23 1.6905303e-06 6.5906861e-24 1.8344357e-40)
(1.7611662e-05 -7.6053145e-06 5.2829217e-23 3.3704463e-06 -1.9805587e-23 1.0537964e-39)
(5.6464673e-05 -1.6051701e-05 1.4751545e-22 4.8351696e-06 -3.1490704e-23 3.5436765e-39)
(0.00012393241 -2.6487351e-05 -1.0544295e-22 6.1537249e-06 1.7991242e-23 9.2170568e-40)
(0.0002215377 -3.8179908e-05 1.329714e-22 7.3274344e-06 -1.8091565e-23 1.0184026e-39)
(0.00035250547 -5.0735729e-05 -1.8279102e-22 8.3578538e-06 2.3287537e-23 1.1188591e-39)
(0.00051773671 -6.3760721e-05 -1.8864251e-22 9.2660215e-06 1.9806248e-23 1.1828056e-39)
(0.00071651316 -7.693497e-05 2.3774161e-22 1.0074559e-05 -2.4779555e-23 1.2509621e-39)
(0.00094758402 -9.0022769e-05 -1.8483991e-22 1.0801054e-05 1.8162711e-23 6.3723917e-40)
(0.0012093719 -0.00010284666 -9.1905064e-24 1.145883e-05 1.5410309e-25 7.4035191e-42)
(0.0014999977 -0.00011526909 5.352344e-23 1.2058074e-05 -5.7256615e-24 2.3490125e-41)
(0.0018173712 -0.00012718164 -9.1827942e-24 1.2606582e-05 4.4787566e-25 3.7166621e-42)
(0.0021592768 -0.00013849838 2.9210648e-22 1.3110613e-05 -2.6356208e-23 1.1167617e-39)
(0.0025234248 -0.0001491538 3.1372909e-25 1.3575953e-05 5.5249405e-25 2.4089707e-42)
(0.0029075035 -0.0001591069 -4.3269795e-22 1.4008993e-05 4.0618582e-23 2.2978168e-39)
(0.003309249 -0.00016834461 8.0640738e-23 1.4416566e-05 -8.4726341e-24 4.8611914e-41)
(0.0037264551 -0.00017686603 1.9664712e-22 1.4803712e-05 -1.9460004e-23 5.8435075e-40)
(0.0041569308 -0.00018470621 -3.2135977e-22 1.5175429e-05 3.39171e-23 1.6566366e-39)
(0.004598171 -0.00019210454 -1.790048e-22 1.5528202e-05 2.0047967e-23 6.2196518e-40)
(1.8894171e-06 -8.7219285e-07 5.4941206e-24 2.2406552e-06 -2.0343663e-24 1.8887712e-41)
(1.0023279e-05 -1.1276889e-05 -1.5063771e-22 1.4897067e-05 1.1357602e-22 6.1349303e-39)
(2.2493193e-05 -2.5603829e-05 2.9890973e-23 2.9692527e-05 -2.4712584e-23 5.5371013e-40)
(6.6439555e-05 -5.197227e-05 1.5875291e-22 4.2599114e-05 -9.7597574e-23 2.9621065e-39)
(0.00013981985 -8.4085566e-05 2.2069626e-22 5.4193825e-05 -1.0620553e-22 3.3496659e-39)
(0.00024368796 -0.00011979241 2.6705366e-23 6.4472036e-05 -1.0730111e-23 3.14686e-41)
(0.00038089841 -0.00015791717 -7.1065989e-22 7.3449878e-05 2.4684508e-22 1.675566e-38)
(0.00055190467 -0.00019729425 -2.5130049e-23 8.1313898e-05 1.0438408e-23 4.8609441e-42)
(0.00075558727 -0.00023698382 4.0327656e-22 8.8262887e-05 -1.2321888e-22 2.8609489e-39)
(0.00099032887 -0.00027629315 -9.7465293e-23 9.4451658e-05 2.7021662e-23 1.5907757e-40)
(0.0012541887 -0.00031469882 -3.708363e-22 9.9997513e-05 1.0203802e-22 1.7653265e-39)
(0.0015449194 -0.00035179326 7.8173762e-23 0.00010498948 -2.0076603e-23 8.0371973e-41)
(0.0018600543 -0.00038725276 3.3040406e-22 0.00010949458 -7.4317549e-23 1.8925847e-39)
(0.0021969836 -0.00042081711 1.371545e-22 0.00011356507 -3.4248619e-23 2.1631529e-40)
(0.0025529921 -0.00045228221 2.755206e-22 0.00011724763 -7.3544554e-23 6.2618866e-40)
(0.0029253101 -0.00048151079 -2.1841238e-22 0.00012059244 5.5127642e-23 5.2944556e-40)
(0.003311242 -0.00050844625 -2.096188e-22 0.00012365402 5.2334334e-23 5.7901443e-40)
(0.0037081138 -0.00053306247 2.1298238e-22 0.00012647581 -6.0235765e-23 3.3523099e-40)
(0.0041125048 -0.00055545062 1.9576006e-22 0.00012910691 -5.3942508e-23 5.8536102e-40)
(0.0045203953 -0.0005765305 7.6573218e-23 0.00013153538 -2.0239132e-23 2.4839265e-40)
(2.4285634e-06 -2.2323147e-06 4.2273032e-24 5.9753431e-06 -2.1189976e-24 9.9487874e-42)
(1.5151348e-05 -2.3305081e-05 1.1441622e-22 3.976685e-05 -1.2246415e-22 2.6146218e-39)
(3.3864045e-05 -5.1506192e-05 -2.5048094e-23 7.9204536e-05 3.2282852e-23 1.3693489e-40)
(8.8482839e-05 -9.86767e-05 -1.7250276e-22 0.0001135922 1.4530513e-22 3.2421485e-39)
(0.00017410882 -0.00015471591 6.3667519e-23 0.00014437834 -5.3503074e-23 9.2053081e-41)
(0.0002908516 -0.00021615005 8.4523861e-23 0.00017148344 -6.8754025e-23 4.8753431e-41)
(0.00044081826 -0.00028103654 -1.0511376e-22 0.00019494524 5.5829458e-23 2.889673e-40)
(0.00062361537 -0.00034748736 -2.7561754e-22 0.00021526005 1.6105759e-22 5.7898305e-40)
(0.00083735474 -0.00041399214 1.2067103e-22 0.00023295597 -5.8782426e-23 1.6156536e-40)
(0.001079705 -0.00047943221 2.5641627e-22 0.00024844747 -1.0694819e-22 9.1699597e-40)
(0.0013480171 -0.00054295405 7.2117488e-23 0.00026205027 -4.9767604e-23 3.4647254e-41)
(0.0016393276 -0.00060388455 3.1424048e-22 0.00027400302 -1.0485648e-22 1.7011418e-39)
(0.0019504361 -0.00066167889 2.6746125e-23 0.00028448205 -9.9432383e-24 7.0589052e-42)
(0.0022779673 -0.00071588548 -4.69294e-22 0.00029361918 1.5914599e-22 2.7363664e-39)
(0.0026183889 -0.000766132 3.4960109e-23 0.00030152592 -2.2819382e-23 1.5201895e-41)
(0.0029680627 -0.00081214366 -2.2029606e-22 0.00030831916 6.1752061e-23 1.0658034e-39)
(0.0033234911 -0.0008537762 -3.1262827e-22 0.00031412709 1.2350016e-22 4.3951575e-40)
(0.003681178 -0.00089093368 5.0940561e-22 0.00031907656 -1.977433e-22 1.4580261e-39)
(0.0040356245 -0.00092372724 2.7026008e-22 0.00032337656 -1.1099742e-22 2.9722048e-40)
(0.0043805291 -0.00095413165 5.3767055e-23 0.00032714009 -2.422329e-23 6.3862259e-42)
(3.5773586e-06 -4.6163333e-06 -6.3215235e-24 1.1002275e-05 7.9547127e-24 1.4616094e-41)
(2.4842425e-05 -4.1383787e-05 -2.6516305e-22 7.3366307e-05 3.3531658e-22 8.6775401e-39)
(5.4984573e-05 -8.9249248e-05 -1.9246513e-23 0.00014600894 2.4734056e-23 1.1856573e-40)
(0.00012727861 -0.00016142258 4.4558738e-23 0.00020925251 -4.9323666e-23 7.5680968e-41)
(0.00023285557 -0.00024452839 -7.1221685e-24 0.00026559498 1.8056842e-24 1.9525537e-41)
(0.00037042736 -0.00033385006 2.2713464e-22 0.00031473016 -1.6659658e-22 1.4252846e-39)
(0.00054094524 -0.00042667186 2.5144263e-22 0.00035669979 -1.6435371e-22 1.2949195e-39)
(0.00074275428 -0.00052044833 -7.6091449e-23 0.00039241747 3.6838305e-23 2.0398143e-40)
(0.00097280782 -0.0006131632 -2.7996958e-22 0.00042286179 1.4646877e-22 1.2974548e-39)
(0.001227681 -0.00070330893 -5.660474e-22 0.00044881248 3.0562777e-22 2.7532063e-39)
(0.0015036379 -0.00078971718 -1.2036803e-23 0.00047087217 -6.7015507e-24 6.2786984e-41)
(0.0017966239 -0.00087145032 7.2245608e-22 0.00048950004 -3.3712044e-22 4.4987581e-39)
(0.0021023291 -0.00094772889 -2.9279868e-22 0.00050503401 1.121182e-22 1.3291959e-39)
(0.0024162497 -0.0010178892 -1.8998502e-22 0.00051772318 8.3320214e-23 2.6252236e-40)
(0.0027336918 -0.00108136 -2.3399873e-23 0.00052776796 2.5658399e-23 5.6622609e-41)
(0.0030498326 -0.0011376853 4.5240167e-22 0.0005353648 -1.9832159e-22 1.0776578e-39)
(0.0033601107 -0.0011865903 -2.5731524e-22 0.00054072422 1.2837369e-22 7.299671e-41)
(0.0036600885 -0.0012279135 -5.912672e-22 0.00054411557 2.4873589e-22 2.3195452e-39)
(0.0039418871 -0.0012617972 3.9901511e-22 0.00054619938 -1.731509e-22 1.1665587e-39)
(0.0041966912 -0.0012914504 3.4395303e-22 0.00054770862 -1.3769464e-22 1.0843336e-39)
(5.7210549e-06 -8.221424e-06 2.8393248e-23 1.677055e-05 -2.7592503e-23 1.8684356e-40)
(4.1227516e-05 -6.6692917e-05 9.1303008e-24 0.00011199048 -2.2999434e-24 8.4597926e-41)
(9.0167781e-05 -0.00014111597 -3.6613325e-22 0.00022251655 5.2395775e-22 7.1225312e-39)
(0.00018887539 -0.00024311964 -2.1031483e-22 0.00031843852 2.23339e-22 2.2018921e-39)
(0.00032354572 -0.00035661627 1.4018558e-22 0.00040330204 -1.1162594e-22 1.3305924e-39)
(0.00049098409 -0.00047564295 1.7489366e-22 0.00047638979 -1.4091956e-22 6.2701703e-40)
(0.00069047676 -0.00059667104 -2.274644e-22 0.0005377344 1.4859796e-22 1.4668151e-39)
(0.00091861928 -0.00071657138 -3.4717558e-22 0.00058874938 1.9934789e-22 3.218764e-39)
(0.0011707445 -0.0008329037 5.1554809e-22 0.00063096338 -3.0805096e-22 3.3038749e-39)
(0.001441885 -0.00094382879 1.4745513e-22 0.00066562146 -5.9754512e-23 7.687718e-40)
(0.0017267807 -0.0010479031 -4.6890325e-22 0.00069371093 3.0980011e-22 2.5731756e-40)
(0.0020198764 -0.0011439548 2.0493463e-22 0.00071600242 -9.3289117e-23 5.9209921e-40)
(0.0023154056 -0.0012310039 0 0.00073307936 0 0)
(0.0026074595 -0.0013082079 2.0092305e-22 0.00074537797 -9.7931434e-23 2.3195586e-40)
(0.0028900116 -0.0013748333 -1.5111972e-22 0.00075324163 7.1819439e-23 1.2388462e-40)
(0.0031570175 -0.0014302804 -2.3229582e-22 0.00075698047 1.1579776e-22 1.5069535e-40)
(0.0034030008 -0.0014741852 8.6392556e-23 0.00075688948 -6.9757292e-23 2.1138395e-40)
(0.0036230498 -0.0015064274 -7.0145969e-23 0.00075339085 4.1663402e-23 7.6903746e-42)
(0.003807543 -0.0015273465 3.3789029e-22 0.00074795027 -1.4611863e-22 1.2549291e-39)
(0.0039449494 -0.0015412593 -2.7357958e-22 0.00074293347 1.3347119e-22 7.3777933e-41)
(9.3062698e-06 -1.3110952e-05 2.722785e-23 2.2735319e-05 -2.2892285e-23 1.5003042e-40)
(6.6717032e-05 -9.9463823e-05 1.3153278e-22 0.00015174999 -1.7507623e-22 5.6160747e-40)
(0.00014418421 -0.00020738279 -1.7657365e-22 0.0003006051 2.3417099e-22 1.3361632e-39)
(0.00027964953 -0.00034370558 -2.9058999e-22 0.00042909218 3.2664854e-22 1.1203612e-39)
(0.00045345731 -0.00049013543 -8.6575579e-23 0.00054168511 1.2607957e-22 8.8391727e-40)
(0.00065983822 -0.00063937215 -2.6318134e-22 0.0006371365 2.3100067e-22 5.501627e-40)
(0.00089575024 -0.00078702688 -1.2201585e-22 0.00071551814 7.5139254e-23 6.3496436e-40)
(0.0011554597 -0.00092949057 2.1190984e-22 0.00077882892 -1.2748475e-22 1.1712966e-39)
(0.0014321532 -0.0010640271 5.0797097e-22 0.00082924468 -3.0277595e-22 4.0109436e-39)
(0.0017188361 -0.0011885878 1.5697281e-22 0.00086858888 -9.6571484e-23 1.6830573e-40)
(0.0020083376 -0.0013015842 -1.4916127e-22 0.0008983529 7.9221739e-23 2.66876e-40)
(0.0022933304 -0.00140175 -2.7364137e-23 0.0009197404 -6.1341255e-24 2.3237116e-40)
(0.0025664719 -0.0014880582 -7.1444343e-22 0.00093369921 3.9056948e-22 2.2153271e-39)
(0.002820544 -0.0015596663 -2.2221741e-22 0.00094096579 1.1610878e-22 2.2913062e-40)
(0.0030485505 -0.0016158858 3.7346485e-22 0.00094212554 -2.1527265e-22 1.0967019e-40)
(0.003243887 -0.0016561962 -3.7288609e-22 0.00093767281 2.0093588e-22 2.2736939e-40)
(0.0034011185 -0.0016803491 -1.3176281e-22 0.00092799311 6.4759196e-23 7.2510878e-41)
(0.0035162786 -0.0016884796 2.9604416e-22 0.00091355785 -1.2503516e-22 1.1258725e-39)
(0.0035800612 -0.00168143 4.5078265e-22 0.00089674461 -2.2456624e-22 8.5516684e-40)
(0.0035784734 -0.001664271 5.4820081e-23 0.00088280936 -2.5574634e-23 1.6637132e-41)
(1.4808962e-05 -1.9218909e-05 -7.6787304e-23 2.840209e-05 6.2341713e-23 8.8764283e-40)
(0.00010371714 -0.00013895626 -8.4953398e-23 0.00018895886 8.6180765e-23 7.0751572e-40)
(0.00022154821 -0.00028618017 2.167045e-22 0.00037252758 -2.7336107e-22 3.282736e-40)
(0.00040510546 -0.00045986224 3.2978676e-22 0.00052969572 -3.4127923e-22 1.4850387e-39)
(0.00062791854 -0.00063992626 4.3084887e-24 0.00066570075 -3.8764056e-24 2.946669e-43)
(0.0008807621 -0.00081762457 -8.9675238e-22 0.00077879913 7.3919166e-22 8.6689506e-39)
(0.0011574707 -0.00098772398 -3.5288492e-22 0.00086925576 3.0126857e-22 1.2523555e-40)
(0.0014493724 -0.0011463221 2.734795e-22 0.000939775 -1.8431372e-22 9.510745e-40)
(0.0017470567 -0.0012906262 3.1449699e-22 0.00099328821 -2.1089344e-22 5.8195727e-40)
(0.0020412179 -0.0014186369 -3.0794784e-22 0.0010323154 1.7145102e-22 1.5964899e-39)
(0.0023226776 -0.0015288973 -9.0964301e-22 0.001058979 5.7269899e-22 2.3308178e-39)
(0.0025825101 -0.0016203522 5.9938743e-22 0.001075043 -3.6227746e-22 9.58344e-40)
(0.0028122958 -0.0016922646 3.5689831e-22 0.0010819456 -1.8600385e-22 1.1464692e-39)
(0.0030043851 -0.0017441643 -4.96434e-22 0.0010808449 2.7325998e-22 9.4693606e-40)
(0.0031521152 -0.0017758145 2.187611e-22 0.0010726758 -1.2575039e-22 6.3706239e-41)
(0.0032500525 -0.0017871977 3.6372259e-22 0.0010581953 -1.8692211e-22 7.0512029e-40)
(0.0032948466 -0.0017785611 1.3893285e-22 0.001037887 -7.7928707e-23 2.4125063e-41)
(0.0032858402 -0.0017505657 -2.3850297e-22 0.0010120693 1.462502e-22 3.0816238e-41)
(0.0032173511 -0.0017047792 -5.5833367e-23 0.0009836549 1.8417291e-23 1.7447285e-40)
(0.0030745779 -0.0016464177 3.1374277e-22 0.00096159489 -1.8012434e-22 7.1705863e-41)
(2.2698825e-05 -2.6351274e-05 -2.2372641e-24 3.333185e-05 -2.4665416e-24 1.6652836e-41)