/*--------------------------------*- C++ -*----------------------------------*\
| =========                 |                                                 |
| \\      /  F ield         | OpenFOAM: The Open Source CFD Toolbox           |
|  \\    /   O peration     | Version:  4.1                                   |
|   \\  /    A nd           | Web:      www.OpenFOAM.org                      |
|    \\/     M anipulation  |                                                 |
\*---------------------------------------------------------------------------*/
FoamFile
{
    version     2.0;
    format      ascii;
    class       volScalarField;
    location    "14";
    object      p;
}
// * * * * * * * * * * * * * * * * * * * * * * * * * * * * * * * * * * * * * //

dimensions      [0 2 -2 0 0 0 0];

internalField   nonuniform List<scalar> 
1000
(
1.5226148
1.5060588
1.4898342
1.4738507
1.458024
1.4422995
1.4266466
1.411049
1.3954967
1.3799819
1.3644981
1.3490401
1.333604
1.3181871
1.3027873
1.2874028
1.2720323
1.2566745
1.2413282
1.2259925
1.2106664
1.1953493
1.1800403
1.1647388
1.1494443
1.1341562
1.118874
1.1035973
1.0883256
1.0730586
1.0577958
1.0425371
1.027282
1.0120304
0.99678191
0.98153633
0.96629345
0.95105306
0.93581497
0.92057901
0.90534501
0.89011282
0.87488231
0.85965334
0.8444258
0.82919957
0.81397456
0.79875065
0.78352778
0.76830584
0.75308478
0.73786451
0.72264498
0.70742611
0.69220787
0.67699019
0.66177303
0.64655634
0.63134008
0.61612422
0.60090872
0.58569355
0.57047869
0.55526409
0.54004974
0.52483562
0.50962171
0.49440798
0.47919442
0.46398101
0.44876773
0.43355458
0.41834154
0.4031286
0.38791575
0.37270298
0.35749028
0.34227764
0.32706505
0.31185252
0.29664003
0.28142757
0.26621515
0.25100276
0.23579039
0.22057804
0.2053657
0.19015339
0.17494108
0.15972879
0.14451651
0.12930423
0.11409196
0.098879688
0.083667424
0.068455163
0.053242904
0.038030647
0.02281839
0.007606131
1.5223554
1.5057781
1.4897502
1.4739224
1.4581407
1.4423999
1.4267221
1.4111097
1.3955501
1.3800299
1.3645404
1.3490767
1.3336356
1.3182148
1.3028118
1.2874249
1.2720522
1.2566925
1.2413446
1.2260074
1.21068
1.1953617
1.1800517
1.1647493
1.1494539
1.134165
1.1188821
1.1036047
1.0883324
1.0730649
1.0578016
1.0425424
1.027287
1.0120349
0.99678607
0.98154016
0.96629696
0.95105629
0.93581793
0.92058173
0.9053475
0.89011511
0.87488441
0.85965526
0.84442756
0.82920118
0.81397602
0.79875199
0.783529
0.76830696
0.75308579
0.73786543
0.72264581
0.70742687
0.69220856
0.67699081
0.66177359
0.64655685
0.63134054
0.61612464
0.6009091
0.58569389
0.57047899
0.55526436
0.54004998
0.52483584
0.5096219
0.49440815
0.47919456
0.46398114
0.44876785
0.43355468
0.41834163
0.40312868
0.38791581
0.37270303
0.35749032
0.34227768
0.32706509
0.31185255
0.29664005
0.28142759
0.26621517
0.25100277
0.2357904
0.22057804
0.20536571
0.19015339
0.17494109
0.15972879
0.14451651
0.12930423
0.11409196
0.098879689
0.083667425
0.068455164
0.053242905
0.038030648
0.022818392
0.0076061326
1.5218846
1.5052016
1.4894454
1.4738942
1.4582339
1.4424959
1.4267863
1.4111529
1.3955878
1.3800673
1.3645758
1.3491078
1.3336619
1.3182372
1.3028315
1.2874424
1.2720679
1.2567066
1.2413572
1.2260188
1.2106904
1.1953711
1.1800603
1.1647571
1.1494611
1.1341716
1.1188881
1.1036103
1.0883375
1.0730695
1.0578059
1.0425464
1.0272906
1.0120382
0.99678912
0.98154296
0.96629955
0.95105866
0.93582011
0.92058373
0.90534934
0.8901168
0.87488596
0.85965668
0.84442886
0.82920237
0.81397712
0.79875299
0.78352991
0.76830779
0.75308655
0.73786613
0.72264645
0.70742745
0.69220908
0.67699129
0.66177402
0.64655724
0.6313409
0.61612496
0.60090939
0.58569415
0.57047922
0.55526457
0.54005017
0.52483601
0.50962205
0.49440828
0.47919468
0.46398124
0.44876794
0.43355476
0.4183417
0.40312874
0.38791587
0.37270308
0.35749037
0.34227771
0.32706512
0.31185257
0.29664007
0.28142761
0.26621518
0.25100278
0.23579041
0.22057805
0.20536572
0.1901534
0.17494109
0.1597288
0.14451651
0.12930423
0.11409196
0.098879691
0.083667427
0.068455166
0.053242907
0.03803065
0.022818394
0.0076061344
1.521416
1.5045794
1.4890594
1.4738031
1.4583004
1.4425868
1.4268497
1.411194
1.3956235
1.3801048
1.3646134
1.3491418
1.3336911
1.318262
1.302853
1.2874615
1.272085
1.2567219
1.241371
1.2260312
1.2107015
1.1953813
1.1800695
1.1647655
1.1494688
1.1341786
1.1188946
1.1036162
1.088343
1.0730745
1.0578105
1.0425506
1.0272945
1.0120419
0.99679245
0.98154603
0.96630237
0.95106127
0.93582252
0.92058594
0.90535138
0.89011868
0.87488768
0.85965828
0.84443033
0.82920372
0.81397835
0.79875413
0.78353096
0.76830875
0.75308743
0.73786693
0.72264719
0.70742813
0.6922097
0.67699185
0.66177454
0.64655771
0.63134133
0.61612535
0.60090974
0.58569447
0.57047951
0.55526484
0.54005041
0.52483622
0.50962225
0.49440846
0.47919484
0.46398139
0.44876807
0.43355488
0.41834181
0.40312883
0.38791595
0.37270315
0.35749043
0.34227777
0.32706517
0.31185262
0.29664011
0.28142764
0.26621521
0.25100281
0.23579043
0.22057807
0.20536573
0.19015341
0.1749411
0.15972881
0.14451652
0.12930424
0.11409196
0.098879695
0.083667431
0.068455169
0.053242911
0.038030654
0.022818398
0.0076061365
1.5211345
1.5041906
1.4888016
1.4737289
1.4583346
1.4426437
1.4268911
1.4112208
1.3956467
1.3801298
1.3646391
1.3491658
1.333712
1.31828
1.3028688
1.2874757
1.2720978
1.2567335
1.2413814
1.2260405
1.2107101
1.195389
1.1800766
1.164772
1.1494747
1.1341841
1.1188996
1.1036208
1.0883472
1.0730784
1.0578141
1.0425539
1.0272976
1.0120447
0.99679506
0.98154844
0.9663046
0.95106332
0.93582441
0.92058769
0.90535299
0.89012016
0.87488906
0.85965954
0.84443149
0.82920479
0.81397934
0.79875504
0.78353179
0.76830952
0.75308814
0.73786758
0.72264778
0.70742867
0.6922102
0.67699231
0.66177496
0.64655809
0.63134168
0.61612567
0.60091003
0.58569474
0.57047976
0.55526506
0.54005061
0.52483641
0.50962241
0.49440861
0.47919498
0.46398151
0.44876818
0.43355498
0.41834189
0.40312891
0.38791602
0.37270322
0.35749049
0.34227782
0.32706521
0.31185266
0.29664014
0.28142767
0.26621524
0.25100283
0.23579045
0.22057809
0.20536575
0.19015342
0.17494111
0.15972881
0.14451653
0.12930424
0.11409197
0.098879699
0.083667434
0.068455172
0.053242914
0.038030656
0.0228184
0.007606138
1.5211345
1.5041906
1.4888015
1.4737289
1.4583346
1.4426437
1.4268911
1.4112208
1.3956467
1.3801298
1.3646391
1.3491658
1.333712
1.31828
1.3028688
1.2874757
1.2720978
1.2567335
1.2413814
1.2260405
1.2107101
1.195389
1.1800766
1.164772
1.1494747
1.1341841
1.1188996
1.1036208
1.0883472
1.0730784
1.0578141
1.0425539
1.0272976
1.0120447
0.99679506
0.98154844
0.9663046
0.95106332
0.93582441
0.92058769
0.90535299
0.89012016
0.87488906
0.85965954
0.84443149
0.82920479
0.81397934
0.79875504
0.78353179
0.76830952
0.75308814
0.73786758
0.72264778
0.70742867
0.6922102
0.67699231
0.66177496
0.64655809
0.63134168
0.61612567
0.60091003
0.58569474
0.57047976
0.55526506
0.54005061
0.52483641
0.50962241
0.49440861
0.47919498
0.46398151
0.44876818
0.43355498
0.41834189
0.40312891
0.38791602
0.37270322
0.35749049
0.34227782
0.32706521
0.31185266
0.29664014
0.28142767
0.26621524
0.25100283
0.23579045
0.22057809
0.20536575
0.19015342
0.17494111
0.15972881
0.14451653
0.12930424
0.11409197
0.098879699
0.083667434
0.068455172
0.053242914
0.038030657
0.022818401
0.0076061382
1.521416
1.5045794
1.4890595
1.4738031
1.4583004
1.4425868
1.4268496
1.411194
1.3956235
1.3801048
1.3646134
1.3491418
1.3336911
1.318262
1.302853
1.2874615
1.272085
1.2567219
1.241371
1.2260312
1.2107016
1.1953813
1.1800695
1.1647656
1.1494688
1.1341787
1.1188946
1.1036162
1.088343
1.0730745
1.0578105
1.0425506
1.0272945
1.0120419
0.99679245
0.98154603
0.96630237
0.95106127
0.93582251
0.92058594
0.90535138
0.89011867
0.87488768
0.85965827
0.84443032
0.82920372
0.81397835
0.79875413
0.78353095
0.76830875
0.75308743
0.73786693
0.72264718
0.70742813
0.6922097
0.67699185
0.66177454
0.64655771
0.63134132
0.61612535
0.60090974
0.58569447
0.57047951
0.55526484
0.54005041
0.52483622
0.50962225
0.49440846
0.47919484
0.46398139
0.44876807
0.43355488
0.41834181
0.40312883
0.38791595
0.37270315
0.35749043
0.34227777
0.32706517
0.31185262
0.29664011
0.28142764
0.26621521
0.25100281
0.23579043
0.22057807
0.20536573
0.19015341
0.1749411
0.15972881
0.14451652
0.12930424
0.11409196
0.098879696
0.083667431
0.06845517
0.053242911
0.038030654
0.022818399
0.007606137
1.5218846
1.5052016
1.4894454
1.4738942
1.4582339
1.4424959
1.4267863
1.4111529
1.3955878
1.3800673
1.3645758
1.3491078
1.3336619
1.3182372
1.3028315
1.2874424
1.2720679
1.2567066
1.2413572
1.2260188
1.2106904
1.1953711
1.1800603
1.1647571
1.1494611
1.1341716
1.1188881
1.1036103
1.0883375
1.0730695
1.0578059
1.0425464
1.0272906
1.0120382
0.99678912
0.98154296
0.96629955
0.95105866
0.93582011
0.92058373
0.90534934
0.8901168
0.87488595
0.85965668
0.84442886
0.82920237
0.81397711
0.79875299
0.78352991
0.76830779
0.75308655
0.73786613
0.72264645
0.70742745
0.69220908
0.67699129
0.66177402
0.64655724
0.6313409
0.61612496
0.60090939
0.58569415
0.57047922
0.55526457
0.54005017
0.52483601
0.50962205
0.49440828
0.47919468
0.46398124
0.44876794
0.43355476
0.4183417
0.40312874
0.38791587
0.37270308
0.35749037
0.34227771
0.32706512
0.31185257
0.29664007
0.28142761
0.26621518
0.25100278
0.23579041
0.22057805
0.20536572
0.1901534
0.17494109
0.1597288
0.14451651
0.12930423
0.11409196
0.098879692
0.083667428
0.068455166
0.053242908
0.038030651
0.022818395
0.0076061349
1.5223554
1.5057781
1.4897502
1.4739224
1.4581407
1.4423999
1.4267221
1.4111096
1.3955501
1.3800299
1.3645404
1.3490767
1.3336356
1.3182148
1.3028118
1.2874249
1.2720522
1.2566925
1.2413446
1.2260074
1.21068
1.1953617
1.1800517
1.1647493
1.1494539
1.134165
1.1188821
1.1036047
1.0883325
1.0730649
1.0578016
1.0425424
1.027287
1.0120349
0.99678607
0.98154016
0.96629696
0.95105629
0.93581793
0.92058172
0.9053475
0.89011511
0.8748844
0.85965526
0.84442756
0.82920118
0.81397602
0.79875199
0.783529
0.76830695
0.75308579
0.73786543
0.72264581
0.70742687
0.69220856
0.67699081
0.66177359
0.64655685
0.63134054
0.61612464
0.6009091
0.58569389
0.57047899
0.55526436
0.54004998
0.52483584
0.5096219
0.49440815
0.47919456
0.46398114
0.44876785
0.43355468
0.41834163
0.40312868
0.38791581
0.37270303
0.35749032
0.34227768
0.32706509
0.31185255
0.29664005
0.28142759
0.26621517
0.25100277
0.2357904
0.22057805
0.20536571
0.19015339
0.17494109
0.15972879
0.14451651
0.12930423
0.11409196
0.09887969
0.083667426
0.068455165
0.053242906
0.038030648
0.022818392
0.0076061328
1.5226148
1.5060588
1.4898342
1.4738507
1.458024
1.4422995
1.4266466
1.411049
1.3954966
1.3799819
1.3644981
1.3490401
1.333604
1.3181871
1.3027873
1.2874028
1.2720323
1.2566745
1.2413282
1.2259925
1.2106664
1.1953493
1.1800403
1.1647388
1.1494443
1.1341562
1.118874
1.1035973
1.0883256
1.0730586
1.0577958
1.0425371
1.027282
1.0120304
0.99678191
0.98153633
0.96629345
0.95105306
0.93581497
0.920579
0.905345
0.89011282
0.87488231
0.85965334
0.8444258
0.82919957
0.81397455
0.79875065
0.78352777
0.76830584
0.75308478
0.73786451
0.72264497
0.70742611
0.69220787
0.67699019
0.66177302
0.64655634
0.63134008
0.61612422
0.60090872
0.58569355
0.57047869
0.55526409
0.54004974
0.52483562
0.50962171
0.49440798
0.47919442
0.46398101
0.44876773
0.43355458
0.41834154
0.4031286
0.38791575
0.37270298
0.35749028
0.34227764
0.32706505
0.31185252
0.29664003
0.28142757
0.26621515
0.25100276
0.23579039
0.22057804
0.20536571
0.19015339
0.17494108
0.15972879
0.14451651
0.12930423
0.11409196
0.098879689
0.083667425
0.068455164
0.053242905
0.038030647
0.02281839
0.0076061312
)
;

boundaryField
{
    top
    {
        type            zeroGradient;
    }
    inlet
    {
        type            fixedValue;
        value           uniform 1.53103;
    }
    outlet
    {
        type            fixedValue;
        value           uniform 0;
    }
    bottom
    {
        type            zeroGradient;
    }
    back
    {
        type            empty;
    }
    front
    {
        type            empty;
    }
}


// ************************************************************************* //
