/*--------------------------------*- C++ -*----------------------------------*\
| =========                 |                                                 |
| \\      /  F ield         | OpenFOAM: The Open Source CFD Toolbox           |
|  \\    /   O peration     | Version:  4.1                                   |
|   \\  /    A nd           | Web:      www.OpenFOAM.org                      |
|    \\/     M anipulation  |                                                 |
\*---------------------------------------------------------------------------*/
FoamFile
{
    version     2.0;
    format      ascii;
    class       surfaceScalarField;
    location    "14";
    object      phi;
}
// * * * * * * * * * * * * * * * * * * * * * * * * * * * * * * * * * * * * * //

dimensions      [0 3 -1 0 0 0 0];

internalField   nonuniform List<scalar> 
1890
(
0.0028507485
2.0416709e-06
0.0028440061
6.7432881e-06
0.0028358444
8.1619651e-06
0.0028286273
7.2166728e-06
0.0028229935
5.6332872e-06
0.0028186207
4.3722763e-06
0.0028150512
3.5690097e-06
0.0028120054
3.0453782e-06
0.0028093626
2.6425088e-06
0.0028070652
2.2970484e-06
0.0028050628
2.0021169e-06
0.0028033022
1.7603355e-06
0.0028017361
1.565844e-06
0.0028003291
1.4068597e-06
0.0027990565
1.272432e-06
0.0027979009
1.1555185e-06
0.0027968484
1.0523756e-06
0.0027958874
9.6084837e-07
0.0027950081
8.7926366e-07
0.0027942019
8.0611632e-07
0.0027934617
7.4012466e-07
0.0027927814
6.8027806e-07
0.0027921555
6.2580425e-07
0.0027915794
5.7608759e-07
0.0027910487
5.3061516e-07
0.0027905598
4.8894143e-07
0.0027901091
4.5068286e-07
0.0027896936
4.1550454e-07
0.0027893104
3.8311907e-07
0.0027889571
3.5327211e-07
0.0027886314
3.2574246e-07
0.002788331
3.0033038e-07
0.0027880542
2.7686072e-07
0.002787799
2.5517327e-07
0.0027875639
2.3512706e-07
0.0027873473
2.1659146e-07
0.0027871478
1.994512e-07
0.0027869643
1.8359812e-07
0.0027867953
1.6893668e-07
0.00278664
1.5537619e-07
0.0027864971
1.4283662e-07
0.0027863659
1.3124123e-07
0.0027862454
1.2052241e-07
0.0027861348
1.1061468e-07
0.0027860333
1.0146056e-07
0.0027859403
9.3003885e-08
0.0027858551
8.5195569e-08
0.0027857772
7.7987165e-08
0.0027857058
7.1336633e-08
0.0027856406
6.5202074e-08
0.0027855811
5.9547404e-08
0.0027855268
5.4336277e-08
0.0027854773
4.9537676e-08
0.0027854321
4.5120044e-08
0.0027853911
4.1056723e-08
0.0027853538
3.7320245e-08
0.0027853199
3.3887699e-08
0.0027852892
3.0735182e-08
0.0027852613
2.7843028e-08
0.0027852362
2.5190398e-08
0.0027852134
2.2760433e-08
0.0027851929
2.0534985e-08
0.0027851744
1.8499652e-08
0.0027851578
1.6638609e-08
0.0027851428
1.4939587e-08
0.0027851294
1.3388829e-08
0.0027851175
1.1975955e-08
0.0027851068
1.0688998e-08
0.0027850973
9.519225e-09
0.0027850888
8.4562694e-09
0.0027850813
7.4928547e-09
0.0027850747
6.6199808e-09
0.0027850689
5.8316169e-09
0.0027850638
5.1199578e-09
0.0027850593
4.4800412e-09
0.0027850554
3.9050335e-09
0.002785052
3.390838e-09
0.0027850491
2.9314347e-09
0.0027850466
2.5234356e-09
0.0027850444
2.1614433e-09
0.0027850426
1.8426143e-09
0.002785041
1.5620741e-09
0.0027850397
1.3174264e-09
0.0027850386
1.1042112e-09
0.0027850377
9.2038395e-10
0.0027850369
7.6189558e-10
0.0027850363
6.2701166e-10
0.0027850358
5.1209033e-10
0.0027850354
4.1562459e-10
0.002785035
3.3448108e-10
0.0027850348
2.6726629e-10
0.0027850346
2.1147516e-10
0.0027850344
1.65547e-10
0.0027850343
1.2772418e-10
0.0027850342
9.5469812e-11
0.0027850341
6.8330245e-11
0.0027850341
4.1706634e-11
0.0027850341
1.7571949e-11
0.0027850341
-1.7919059e-11
-4.3548443e-11
0.0071263032
2.2588901e-06
0.0071235033
9.5444557e-06
0.0071185147
1.3151014e-05
0.0071127701
1.2960917e-05
0.0071072293
1.1173551e-05
0.0071021286
9.4724799e-06
0.0070974209
8.2763408e-06
0.0070930565
7.4095039e-06
0.0070890362
6.662469e-06
0.007085372
5.9609887e-06
0.0070820539
5.3199412e-06
0.0070790513
4.7627586e-06
0.007076327
4.2899728e-06
0.0070738475
3.8861116e-06
0.0070715857
3.5341138e-06
0.0070695188
3.2222932e-06
0.0070676272
2.9439558e-06
0.0070658932
2.6947483e-06
0.0070643014
2.4709448e-06
0.0070628384
2.2690847e-06
0.0070614923
2.0861506e-06
0.0070602528
1.9196954e-06
0.0070591108
1.7677691e-06
0.0070580581
1.6287806e-06
0.0070570873
1.5013776e-06
0.0070561918
1.3843917e-06
0.0070553657
1.2768046e-06
0.0070546034
1.1777333e-06
0.0070539001
1.0864041e-06
0.0070532513
1.0021393e-06
0.0070526527
9.2433506e-07
0.0070521005
8.5245527e-07
0.0070515914
7.8601626e-07
0.007051122
7.2458534e-07
0.0070506893
6.6776859e-07
0.0070502907
6.1521129e-07
0.0070499235
5.6658771e-07
0.0070495855
5.2160311e-07
0.0070492745
4.7998489e-07
0.0070489884
4.4148541e-07
0.0070487254
4.0587426e-07
0.0070484837
3.7294174e-07
0.0070482617
3.4249174e-07
0.007048058
3.1434543e-07
0.0070478711
2.8833484e-07
0.0070476998
2.6430686e-07
0.0070475429
2.4211709e-07
0.0070473993
2.2163386e-07
0.0070472679
2.0273259e-07
0.0070471478
1.8529986e-07
0.0070470381
1.6922803e-07
0.007046938
1.5441919e-07
0.0070468468
1.4078009e-07
0.0070467637
1.2822624e-07
0.0070466881
1.1667686e-07
0.0070466194
1.0605892e-07
0.0070465569
9.6302363e-08
0.0070465003
8.7344165e-08
0.0070464491
7.9123624e-08
0.0070464027
7.1586273e-08
0.0070463608
6.4679487e-08
0.0070463229
5.8356357e-08
0.0070462889
5.2571356e-08
0.0070462582
4.7284077e-08
0.0070462307
4.2455128e-08
0.0070462061
3.8049894e-08
0.007046184
3.4034447e-08
0.0070461643
3.0379164e-08
0.0070461468
2.7054846e-08
0.0070461312
2.4036342e-08
0.0070461174
2.1298658e-08
0.0070461052
1.8820449e-08
0.0070460945
1.658029e-08
0.0070460851
1.4560178e-08
0.0070460768
1.2741781e-08
0.0070460696
1.1109808e-08
0.0070460633
9.6484168e-09
0.0070460579
8.3446145e-09
0.0070460533
7.184624e-09
0.0070460493
6.1572108e-09
0.0070460459
5.2501723e-09
0.007046043
4.4537702e-09
0.0070460405
3.7571154e-09
0.0070460385
3.1516486e-09
0.0070460368
2.6274966e-09
0.0070460354
2.1772712e-09
0.0070460342
1.7920246e-09
0.0070460333
1.4654834e-09
0.0070460325
1.1894162e-09
0.0070460319
9.5888023e-10
0.0070460314
7.6621232e-10
0.007046031
6.0792797e-10
0.0070460307
4.7643228e-10
0.0070460304
3.696841e-10
0.0070460302
2.7992686e-10
0.0070460301
2.0635273e-10
0.00704603
1.4162698e-10
0.0070460299
8.3928729e-11
0.0070460299
3.3065515e-11
-1.8848225e-11
0.010138055
1.6437312e-06
0.010139601
7.9998103e-06
0.010140841
1.1911243e-05
0.010141322
1.2479006e-05
0.010141253
1.1241904e-05
0.01014083
9.8951113e-06
0.010140149
8.9566807e-06
0.01013927
8.288718e-06
0.010138257
7.6749372e-06
0.010137175
7.0431326e-06
0.01013607
6.4248981e-06
0.010134971
5.8614477e-06
0.010133895
5.3651211e-06
0.010132855
4.9264589e-06
0.010131857
4.5317998e-06
0.010130907
4.172253e-06
0.010130007
3.8435836e-06
0.010129159
3.5432925e-06
0.010128361
3.2688609e-06
0.010127612
3.0175526e-06
0.010126912
2.7868008e-06
0.010126257
2.5744482e-06
0.010125646
2.3787343e-06
0.010125076
2.1981684e-06
0.010124546
2.0314372e-06
0.010124053
1.8773584e-06
0.010123595
1.7348727e-06
0.01012317
1.6030299e-06
0.010122775
1.4809814e-06
0.010122409
1.36796e-06
0.010122071
1.2632729e-06
0.010121757
1.1662866e-06
0.010121466
1.0764254e-06
0.010121198
9.9315961e-07
0.010120949
9.1600635e-07
0.01012072
8.4451896e-07
0.010120508
7.7828876e-07
0.010120313
7.16936e-07
0.010120133
6.6011239e-07
0.010119967
6.0749305e-07
0.010119814
5.5877968e-07
0.010119673
5.1369311e-07
0.010119544
4.7197678e-07
0.010119425
4.3338991e-07
0.010119315
3.9771129e-07
0.010119215
3.6473277e-07
0.010119123
3.3426314e-07
0.010119038
3.0612211e-07
0.010118961
2.8014424e-07
0.01011889
2.5617324e-07
0.010118825
2.340658e-07
0.010118766
2.1368627e-07
0.010118712
1.9491057e-07
0.010118662
1.7762098e-07
0.010118617
1.6170999e-07
0.010118576
1.470754e-07
0.010118539
1.3362419e-07
0.010118505
1.2126772e-07
0.010118474
1.0992545e-07
0.010118446
9.9520479e-08
0.010118421
8.9983256e-08
0.010118398
8.124719e-08
0.010118378
7.3252232e-08
0.010118359
6.5940745e-08
0.010118342
5.9261062e-08
0.010118327
5.3163441e-08
0.010118313
4.7603515e-08
0.010118301
4.2538436e-08
0.01011829
3.7930301e-08
0.010118281
3.3742354e-08
0.010118272
2.9942302e-08
0.010118264
2.6498666e-08
0.010118258
2.3384064e-08
0.010118252
2.0571602e-08
0.010118246
1.8038035e-08
0.010118242
1.5760303e-08
0.010118238
1.3718651e-08
0.010118234
1.1893215e-08
0.010118231
1.0267027e-08
0.010118228
8.8227769e-09
0.010118226
7.5457533e-09
0.010118224
6.4207439e-09
0.010118222
5.4347855e-09
0.010118221
4.5743812e-09
0.01011822
3.828027e-09
0.010118219
3.1837985e-09
0.010118218
2.6313815e-09
0.010118217
2.16036e-09
0.010118217
1.7614992e-09
0.010118216
1.4259778e-09
0.010118216
1.1455016e-09
0.010118216
9.1274182e-10
0.010118215
7.2024031e-10
0.010118215
5.6163027e-10
0.010118215
4.3157333e-10
0.010118215
3.2265826e-10
0.010118215
2.3502896e-10
0.010118215
1.5440255e-10
0.010118215
9.8269871e-11
3.1997432e-11
0.012046122
8.3537387e-07
0.012049744
4.3792814e-06
0.01205486
6.7949995e-06
0.012059985
7.3530474e-06
0.012064466
6.759919e-06
0.012068324
6.0367265e-06
0.012071732
5.5489073e-06
0.012074797
5.222942e-06
0.012077555
4.9172373e-06
0.012080017
4.5803e-06
0.012082208
4.2341262e-06
0.01208416
3.9095091e-06
0.012085907
3.617942e-06
0.012087478
3.3554349e-06
0.012088895
3.1144988e-06
0.012090176
2.8905881e-06
0.012091338
2.6821423e-06
0.012092392
2.4885807e-06
0.012093352
2.3090916e-06
0.012094227
2.1425414e-06
0.012095026
1.9877683e-06
0.012095757
1.84379e-06
0.012096426
1.7097992e-06
0.012097039
1.5851071e-06
0.012097601
1.4690746e-06
0.012098117
1.3611106e-06
0.012098591
1.2606565e-06
0.012099027
1.1672038e-06
0.012099428
1.0802752e-06
0.012099796
9.9943649e-07
0.012100135
9.2427486e-07
0.012100447
8.5441356e-07
0.012100734
7.8949223e-07
0.012100998
7.2918275e-07
0.012101241
6.7317012e-07
0.012101464
6.2116862e-07
0.01210167
5.7290265e-07
0.012101858
5.2812298e-07
0.012102032
4.8658821e-07
0.012102191
4.4808111e-07
0.012102338
4.1239032e-07
0.012102472
3.7932645e-07
0.012102595
3.487044e-07
0.012102709
3.2035929e-07
0.012102812
2.9412913e-07
0.012102907
2.698704e-07
0.012102994
2.4744128e-07
0.012103073
2.2671709e-07
0.012103146
2.075738e-07
0.012103212
1.8990307e-07
0.012103273
1.7359643e-07
0.012103328
1.5855998e-07
0.012103378
1.4469892e-07
0.012103424
1.319319e-07
0.012103465
1.2017606e-07
0.012103503
1.0936114e-07
0.012103537
9.9414772e-08
0.012103568
9.0276381e-08
0.012103596
8.1882676e-08
0.012103621
7.4181459e-08
0.012103644
6.7117703e-08
0.012103665
6.0646472e-08
0.012103683
5.4719773e-08
0.0121037
4.9299159e-08
0.012103715
4.4342868e-08
0.012103728
3.9818048e-08
0.01210374
3.568836e-08
0.012103751
3.1925958e-08
0.01210376
2.8499318e-08
0.012103769
2.5384892e-08
0.012103776
2.2555335e-08
0.012103783
1.9990942e-08
0.012103788
1.7668046e-08
0.012103793
1.5570165e-08
0.012103798
1.3676752e-08
0.012103801
1.1974143e-08
0.012103805
1.0444447e-08
0.012103808
9.076253e-09
0.01210381
7.8538151e-09
0.012103812
6.7676347e-09
0.012103814
5.803727e-09
0.012103815
4.9540559e-09
0.012103816
4.2060131e-09
0.012103818
3.5528508e-09
0.012103818
2.9831084e-09
0.012103819
2.4910862e-09
0.01210382
2.0662625e-09
0.01210382
1.7040097e-09
0.01210382
1.3946748e-09
0.012103821
1.1345929e-09
0.012103821
9.1494755e-10
0.012103821
7.3283184e-10
0.012103821
5.8047909e-10
0.012103821
4.5531372e-10
0.012103821
3.5173693e-10
0.012103822
2.6587429e-10
0.012103822
1.9734125e-10
0.012103822
1.3426942e-10
0.012103822
9.2423771e-11
4.1495852e-11
0.012968996
3.1908608e-11
0.012973376
9.2109942e-11
0.012980171
2.886752e-11
0.012987523
-1.1560821e-11
0.012994282
2.3679041e-11
0.013000319
1.2051939e-10
0.013005867
2.0176908e-10
0.013011089
2.3917966e-10
0.013016006
2.4612411e-10
0.013020586
2.4829284e-10
0.01302482
2.5133582e-10
0.013028729
2.5090671e-10
0.013032346
2.430318e-10
0.013035701
2.2808232e-10
0.013038815
2.0906457e-10
0.013041706
1.8713146e-10
0.013044388
1.6433176e-10
0.013046876
1.3984636e-10
0.013049185
1.1588357e-10
0.013051327
9.1416447e-11
0.013053315
6.8891477e-11
0.013055159
4.6638193e-11
0.013056868
2.7114119e-11
0.013058453
8.7440813e-12
0.013059922
-7.7655567e-12
0.013061284
-2.3179388e-11
0.013062544
-3.5518071e-11
0.013063712
-4.7346151e-11
0.013064792
-5.6173437e-11
0.013065791
-6.4813646e-11
0.013066716
-7.0668859e-11
0.01306757
-7.6487502e-11
0.01306836
-7.965701e-11
0.013069089
-8.3134988e-11
0.013069762
-8.4207345e-11
0.013070383
-8.5663425e-11
0.013070956
-8.4849848e-11
0.013071485
-8.4698389e-11
0.013071971
-8.2516469e-11
0.013072419
-8.1001888e-11
0.013072832
-7.7575241e-11
0.013073211
-7.5019669e-11
0.01307356
-7.0753879e-11
0.013073881
-6.7315203e-11
0.013074175
-6.2249557e-11
0.013074445
-5.8168869e-11
0.013074692
-5.2642142e-11
0.013074919
-4.8051735e-11
0.013075127
-4.2111566e-11
0.013075317
-3.7272339e-11
0.01307549
-3.1293946e-11
0.013075649
-2.6399461e-11
0.013075793
-2.0502843e-11
0.013075925
-1.5850082e-11
0.013076046
-1.0437898e-11
0.013076155
-6.2054844e-12
0.013076254
-1.5057632e-12
0.013076345
2.2456489e-12
0.013076427
6.3240382e-12
0.013076501
9.0811055e-12
0.013076568
1.244643e-11
0.013076629
1.4390674e-11
0.013076683
1.6920619e-11
0.013076733
1.8161763e-11
0.013076777
2.0065652e-11
0.013076817
2.0674916e-11
0.013076852
2.1959745e-11
0.013076884
2.2117591e-11
0.013076913
2.3035636e-11
0.013076938
2.2827401e-11
0.013076961
2.3380827e-11
0.013076981
2.2951578e-11
0.013076998
2.3335044e-11
0.013077014
2.2700651e-11
0.013077027
2.2843236e-11
0.013077039
2.2067263e-11
0.01307705
2.2081363e-11
0.013077059
2.1109514e-11
0.013077067
2.0871144e-11
0.013077073
1.9724774e-11
0.013077079
1.931956e-11
0.013077084
1.7939815e-11
0.013077088
1.7260897e-11
0.013077092
1.5694819e-11
0.013077095
1.4863924e-11
0.013077097
1.3096816e-11
0.013077099
1.2057723e-11
0.013077101
1.0173261e-11
0.013077103
9.0761428e-12
0.013077104
7.0675039e-12
0.013077105
5.7917653e-12
0.013077105
3.5395674e-12
0.013077106
2.0710163e-12
0.013077106
-3.1495185e-13
0.013077107
-1.7345393e-12
0.013077107
-3.5020115e-12
0.013077107
-4.7043128e-12
0.013077107
-6.0266272e-12
0.013077107
-1.01079e-11
-1.1351201e-11
0.012968995
-8.3545812e-07
0.012973375
-4.3797186e-06
0.01298017
-6.7953815e-06
0.012987523
-7.3531764e-06
0.012994282
-6.7598324e-06
0.013000318
-6.0365393e-06
0.013005867
-5.54864e-06
0.013011089
-5.2226101e-06
0.013016006
-4.9168569e-06
0.013020586
-4.5798853e-06
0.013024819
-4.2336938e-06
0.013028729
-3.9090737e-06
0.013032346
-3.6175175e-06
0.013035701
-3.3550322e-06
0.013038815
-3.1141261e-06
0.013041706
-2.8902518e-06
0.013044388
-2.6818465e-06
0.013046876
-2.4883284e-06
0.013049185
-2.308883e-06
0.013051327
-2.1423768e-06
0.013053315
-1.9876453e-06
0.013055159
-1.843707e-06
0.013056868
-1.7097524e-06
0.013058454
-1.5850941e-06
0.013059923
-1.4690918e-06
0.013061284
-1.3611555e-06
0.013062544
-1.2607245e-06
0.013063712
-1.1672926e-06
0.013064792
-1.0803807e-06
0.013065791
-9.9955692e-07
0.013066716
-9.2440637e-07
0.01306757
-8.5455474e-07
0.01306836
-7.8963966e-07
0.013069089
-7.2933553e-07
0.013069762
-6.7332517e-07
0.013070383
-6.213253e-07
0.013070956
-5.7305827e-07
0.013071485
-5.2827732e-07
0.013071971
-4.8673887e-07
0.013072419
-4.4822804e-07
0.013072832
-4.1253143e-07
0.013073211
-3.7946201e-07
0.01307356
-3.488325e-07
0.01307388
-3.2048028e-07
0.013074175
-2.9424135e-07
0.013074445
-2.699744e-07
0.013074692
-2.4753558e-07
0.013074919
-2.268023e-07
0.013075126
-2.0764868e-07
0.013075316
-1.8996851e-07
0.01307549
-1.736514e-07
0.013075649
-1.5860546e-07
0.013075793
-1.4473421e-07
0.013075925
-1.3195828e-07
0.013076045
-1.2019305e-07
0.013076155
-1.0937007e-07
0.013076254
-9.9415469e-08
0.013076345
-9.0270217e-08
0.013076426
-8.1869603e-08
0.013076501
-7.416304e-08
0.013076568
-6.7093856e-08
0.013076628
-6.0618787e-08
0.013076683
-5.46881e-08
0.013076732
-4.9264919e-08
0.013076777
-4.4305858e-08
0.013076816
-3.9779624e-08
0.013076852
-3.5648178e-08
0.013076884
-3.1885156e-08
0.013076913
-2.8457475e-08
0.013076938
-2.5343087e-08
0.01307696
-2.2513032e-08
0.01307698
-1.9949051e-08
0.013076998
-1.7626017e-08
0.013077014
-1.552892e-08
0.013077027
-1.3635702e-08
0.013077039
-1.1934122e-08
0.01307705
-1.0404919e-08
0.013077059
-9.038122e-09
0.013077067
-7.8165487e-09
0.013077073
-6.7320813e-09
0.013077079
-5.7694129e-09
0.013077084
-4.9218929e-09
0.013077088
-4.1755054e-09
0.013077092
-3.5248249e-09
0.013077095
-2.9570813e-09
0.013077097
-2.4679064e-09
0.013077099
-2.045377e-09
0.013077101
-1.6861603e-09
0.013077102
-1.3792922e-09
0.013077104
-1.1224648e-09
0.013077104
-9.0551362e-10
0.013077105
-7.2696443e-10
0.013077106
-5.7768828e-10
0.013077106
-4.5642492e-10
0.013077107
-3.5550687e-10
0.013077107
-2.7270996e-10
0.013077107
-2.0608386e-10
0.013077107
-1.446355e-10
0.013077107
-1.0849379e-10
-5.9370815e-11
0.012046122
-1.6437048e-06
0.012049743
-7.9996838e-06
0.012054859
-1.1911189e-05
0.012059984
-1.2479057e-05
0.012064466
-1.1241952e-05
0.012068324
-9.8951013e-06
0.012071731
-8.9565896e-06
0.012074797
-8.2885613e-06
0.012077554
-7.6747262e-06
0.012080017
-7.0428826e-06
0.012082208
-6.4246187e-06
0.01208416
-5.861152e-06
0.012085907
-5.3648212e-06
0.012087478
-4.9261662e-06
0.012088895
-4.5315247e-06
0.012090177
-4.1720013e-06
0.012091338
-3.8433619e-06
0.012092393
-3.5431016e-06
0.012093352
-3.2687045e-06
0.012094227
-3.0174282e-06
0.012095026
-2.7867103e-06
0.012095757
-2.5743868e-06
0.012096426
-2.378703e-06
0.012097039
-2.1981613e-06
0.012097601
-2.0314554e-06
0.012098117
-1.8773954e-06
0.012098592
-1.7349293e-06
0.012099027
-1.6030998e-06
0.012099428
-1.4810659e-06
0.012099797
-1.368053e-06
0.012100136
-1.2633761e-06
0.012100447
-1.1663941e-06
0.012100734
-1.0765393e-06
0.012100998
-9.9327448e-07
0.012101241
-9.1612455e-07
0.012101464
-8.4463529e-07
0.01210167
-7.7840603e-07
0.012101858
-7.1704928e-07
0.012102032
-6.6022456e-07
0.012102191
-6.0759954e-07
0.012102338
-5.5888363e-07
0.012102472
-5.1379014e-07
0.012102595
-4.7206998e-07
0.012102708
-4.334752e-07
0.012102812
-3.9779193e-07
0.012102907
-3.6480482e-07
0.012102993
-3.3432978e-07
0.012103073
-3.0617968e-07
0.012103145
-2.801961e-07
0.012103212
-2.5621592e-07
0.012103272
-2.341026e-07
0.012103327
-2.1371408e-07
0.012103377
-1.9493287e-07
0.012103423
-1.7763486e-07
0.012103465
-1.617189e-07
0.012103502
-1.4707674e-07
0.012103536
-1.3362154e-07
0.012103567
-1.2125855e-07
0.012103596
-1.0991325e-07
0.012103621
-9.9502931e-08
0.012103644
-8.9963868e-08
0.012103664
-8.122362e-08
0.012103683
-7.322776e-08
0.0121037
-6.5913073e-08
0.012103715
-5.9233405e-08
0.012103728
-5.3133416e-08
0.01210374
-4.7574078e-08
0.01210375
-4.2507211e-08
0.01210376
-3.7900179e-08
0.012103768
-3.3710885e-08
0.012103776
-2.9912162e-08
0.012103782
-2.646745e-08
0.012103788
-2.3354444e-08
0.012103793
-2.0541155e-08
0.012103797
-1.8009294e-08
0.012103801
-1.5730941e-08
0.012103804
-1.3691253e-08
0.012103807
-1.1865472e-08
0.01210381
-1.0241422e-08
0.012103812
-8.7971008e-09
0.012103813
-7.5225475e-09
0.012103815
-6.3977949e-09
0.012103816
-5.4145188e-09
0.012103817
-4.5546386e-09
0.012103818
-3.8112662e-09
0.012103819
-3.1678069e-09
0.012103819
-2.6184933e-09
0.01210382
-2.1483622e-09
0.01210382
-1.7527851e-09
0.012103821
-1.4182722e-09
0.012103821
-1.1411445e-09
0.012103821
-9.0935992e-10
0.012103821
-7.2046528e-10
0.012103821
-5.628193e-10
0.012103821
-4.3621557e-10
0.012103821
-3.2800614e-10
0.012103821
-2.4178045e-10
0.012103821
-1.6091435e-10
0.012103821
-1.045034e-10
-3.9023909e-11
0.010138054
-2.2588449e-06
0.0101396
-9.5442319e-06
0.01014084
-1.315078e-05
0.010141321
-1.2960873e-05
0.010141252
-1.1173716e-05
0.01014083
-9.4727275e-06
0.010140149
-8.2765475e-06
0.01013927
-7.4096186e-06
0.010138257
-6.6624935e-06
0.010137175
-5.9609462e-06
0.01013607
-5.3198522e-06
0.010134971
-4.7626367e-06
0.010133896
-4.2898297e-06
0.010132855
-3.8859583e-06
0.010131857
-3.5339618e-06
0.010130907
-3.2221503e-06
0.010130008
-2.9438283e-06
0.010129159
-2.6946382e-06
0.010128361
-2.4708546e-06
0.010127613
-2.2690139e-06
0.010126912
-2.0860999e-06
0.010126257
-1.9196626e-06
0.010125646
-1.7677539e-06
0.010125077
-1.6287803e-06
0.010124547
-1.5013914e-06
0.010124054
-1.3844167e-06
0.010123596
-1.2768401e-06
0.01012317
-1.1777765e-06
0.010122776
-1.0864546e-06
0.01012241
-1.0021944e-06
0.010122071
-9.2439463e-07
0.010121757
-8.5251707e-07
0.010121466
-7.8608045e-07
0.010121198
-7.2464974e-07
0.010120949
-6.6783354e-07
0.01012072
-6.1527505e-07
0.010120508
-5.6665083e-07
0.010120313
-5.2166385e-07
0.010120133
-4.8004392e-07
0.010119967
-4.4154133e-07
0.010119814
-4.0592785e-07
0.010119673
-3.7299155e-07
0.010119543
-3.4253858e-07
0.010119424
-3.1438815e-07
0.010119315
-2.8837431e-07
0.010119215
-2.6434183e-07
0.010119122
-2.4214845e-07
0.010119038
-2.2166065e-07
0.01011896
-2.0275575e-07
0.01011889
-1.8531839e-07
0.010118825
-1.6924292e-07
0.010118765
-1.5442971e-07
0.010118711
-1.4078732e-07
0.010118662
-1.2822941e-07
0.010118617
-1.1667711e-07
0.010118576
-1.0605573e-07
0.010118538
-9.6296902e-08
0.010118505
-8.733581e-08
0.010118474
-7.9113543e-08
0.010118446
-7.1574033e-08
0.010118421
-6.466623e-08
0.010118398
-5.8341496e-08
0.010118377
-5.255595e-08
0.010118358
-4.726764e-08
0.010118342
-4.2438655e-08
0.010118327
-3.8032722e-08
0.010118313
-3.4017474e-08
0.010118301
-3.0361819e-08
0.01011829
-2.703797e-08
0.01011828
-2.4019207e-08
0.010118272
-2.1282044e-08
0.010118264
-1.8803745e-08
0.010118257
-1.6564257e-08
0.010118251
-1.4544091e-08
0.010118246
-1.2726377e-08
0.010118241
-1.1094511e-08
0.010118237
-9.6339738e-09
0.010118234
-8.3303549e-09
0.010118231
-7.1712848e-09
0.010118228
-6.1442656e-09
0.010118226
-5.2383616e-09
0.010118224
-4.4424614e-09
0.010118222
-3.7470223e-09
0.010118221
-3.1422541e-09
0.01011822
-2.6194984e-09
0.010118219
-2.1700245e-09
0.010118218
-1.7861947e-09
0.010118217
-1.4605191e-09
0.010118216
-1.1859793e-09
0.010118216
-9.562804e-10
0.010118216
-7.650762e-10
0.010118215
-6.0748851e-10
0.010118215
-4.7731614e-10
0.010118215
-3.7093855e-10
0.010118215
-2.8273024e-10
0.010118215
-2.0992839e-10
0.010118215
-1.451367e-10
0.010118214
-8.6148158e-11
0.010118214
-3.1265444e-11
2.140952e-11
0.0071263032
-2.0415424e-06
0.0071235032
-6.7431141e-06
0.0071185147
-8.1618647e-06
0.0071127702
-7.2167364e-06
0.0071072294
-5.633553e-06
0.0071021287
-4.3726544e-06
0.0070974209
-3.5693779e-06
0.0070930564
-3.0456577e-06
0.0070890362
-2.642693e-06
0.0070853719
-2.2971615e-06
0.0070820539
-2.0021851e-06
0.0070790513
-1.7603729e-06
0.007076327
-1.5658581e-06
0.0070738476
-1.4068582e-06
0.0070715859
-1.2724209e-06
0.0070695191
-1.155505e-06
0.0070676274
-1.0523619e-06
0.0070658935
-9.6083833e-07
0.0070643018
-8.7925631e-07
0.0070628388
-8.061142e-07
0.0070614927
-7.4012556e-07
0.0070602532
-6.8028419e-07
0.0070591112
-6.2581276e-07
0.0070580585
-5.7610054e-07
0.0070570877
-5.3062928e-07
0.0070561922
-4.8895895e-07
0.007055366
-4.5070052e-07
0.0070546037
-4.1552467e-07
0.0070539004
-3.8313836e-07
0.0070532515
-3.5329309e-07
0.0070526528
-3.2576198e-07
0.0070521007
-3.0035106e-07
0.0070515915
-2.7687942e-07
0.007051122
-2.5519272e-07
0.0070506893
-2.3514426e-07
0.0070502906
-2.1660918e-07
0.0070499235
-1.9946644e-07
0.0070495854
-1.8361366e-07
0.0070492743
-1.6894969e-07
0.0070489882
-1.5538943e-07
0.0070487251
-1.4284726e-07
0.0070484834
-1.3125199e-07
0.0070482614
-1.2053061e-07
0.0070480576
-1.1062298e-07
0.0070478707
-1.0146629e-07
0.0070476994
-9.3009655e-08
0.0070475425
-8.5198846e-08
0.0070473988
-7.7990515e-08
0.0070472674
-7.1337525e-08
0.0070471473
-6.5203039e-08
0.0070470376
-5.9546064e-08
0.0070469375
-5.4335112e-08
0.0070468463
-4.9534328e-08
0.0070467632
-4.5116964e-08
0.0070466876
-4.1051693e-08
0.0070466189
-3.7315666e-08
0.0070465565
-3.3881354e-08
0.0070464999
-3.0729433e-08
0.0070464486
-2.7835776e-08
0.0070464022
-2.5183944e-08
0.0070463603
-2.2752653e-08
0.0070463225
-2.0528133e-08
0.0070462885
-1.8491686e-08
0.0070462578
-1.6631711e-08
0.0070462303
-1.4931677e-08
0.0070462057
-1.3382044e-08
0.0070461837
-1.1968285e-08
0.007046164
-1.0682516e-08
0.0070461465
-9.5118808e-09
0.0070461309
-8.4501093e-09
0.0070461171
-7.4858995e-09
0.0070461049
-6.6142343e-09
0.0070460942
-5.8250633e-09
0.0070460848
-5.1145969e-09
0.0070460765
-4.473929e-09
0.0070460693
-3.9001458e-09
0.0070460631
-3.3851933e-09
0.0070460577
-2.9270217e-09
0.0070460531
-2.5183355e-09
0.0070460491
-2.157629e-09
0.0070460457
-1.8381162e-09
0.0070460428
-1.5588852e-09
0.0070460404
-1.3136222e-09
0.0070460383
-1.1017702e-09
0.0070460366
-9.1731283e-10
0.0070460352
-7.6020283e-10
0.0070460341
-6.247334e-10
0.0070460331
-5.1122976e-10
0.0070460324
-4.1415291e-10
0.0070460317
-3.3441903e-10
0.0070460312
-2.6652397e-10
0.0070460308
-2.1195469e-10
0.0070460305
-1.6486326e-10
0.0070460303
-1.28141e-10
0.0070460301
-9.5295214e-11
0.00704603
-6.8782949e-11
0.0070460299
-4.2128924e-11
0.0070460298
-1.7592152e-11
0.0070460298
2.1399407e-11
4.7386334e-11
0.0028507492
0.0028440064
0.0028358446
0.0028286275
0.0028229937
0.0028186207
0.002815051
0.0028120051
0.0028093622
0.0028070648
0.0028050624
0.0028033019
0.0028017359
0.0028003289
0.0027990564
0.0027979008
0.0027968484
0.0027958875
0.0027950082
0.002794202
0.0027934618
0.0027927815
0.0027921557
0.0027915795
0.0027910489
0.0027905599
0.0027901092
0.0027896937
0.0027893105
0.0027889572
0.0027886315
0.0027883311
0.0027880542
0.002787799
0.0027875639
0.0027873473
0.0027871478
0.0027869642
0.0027867953
0.0027866399
0.002786497
0.0027863658
0.0027862453
0.0027861346
0.0027860332
0.0027859402
0.002785855
0.002785777
0.0027857057
0.0027856405
0.0027855809
0.0027855266
0.0027854771
0.002785432
0.0027853909
0.0027853536
0.0027853197
0.002785289
0.0027852612
0.002785236
0.0027852133
0.0027851927
0.0027851743
0.0027851576
0.0027851427
0.0027851293
0.0027851174
0.0027851067
0.0027850972
0.0027850887
0.0027850812
0.0027850746
0.0027850688
0.0027850637
0.0027850592
0.0027850553
0.0027850519
0.002785049
0.0027850465
0.0027850444
0.0027850425
0.002785041
0.0027850396
0.0027850386
0.0027850376
0.0027850369
0.0027850363
0.0027850357
0.0027850353
0.002785035
0.0027850347
0.0027850345
0.0027850344
0.0027850342
0.0027850341
0.0027850341
0.002785034
0.002785034
0.002785034
)
;

boundaryField
{
    top
    {
        type            calculated;
        value           uniform 0;
    }
    inlet
    {
        type            calculated;
        value           nonuniform List<scalar> 10(-0.0028527889 -0.0071265195 -0.010137439 -0.012045313 -0.01296816 -0.012968158 -0.012045313 -0.010137438 -0.0071265194 -0.0028527901);
    }
    outlet
    {
        type            calculated;
        value           nonuniform List<scalar> 10(0.0027850341 0.0070460299 0.010118215 0.012103822 0.013077107 0.013077107 0.012103821 0.010118214 0.0070460297 0.0027850341);
    }
    bottom
    {
        type            calculated;
        value           uniform 0;
    }
    back
    {
        type            empty;
        value           nonuniform 0();
    }
    front
    {
        type            empty;
        value           nonuniform 0();
    }
}


// ************************************************************************* //
