/*--------------------------------*- C++ -*----------------------------------*\
| =========                 |                                                 |
| \\      /  F ield         | OpenFOAM: The Open Source CFD Toolbox           |
|  \\    /   O peration     | Version:  4.1                                   |
|   \\  /    A nd           | Web:      www.OpenFOAM.org                      |
|    \\/     M anipulation  |                                                 |
\*---------------------------------------------------------------------------*/
FoamFile
{
    version     2.0;
    format      ascii;
    class       volVectorField;
    location    "14";
    object      U;
}
// * * * * * * * * * * * * * * * * * * * * * * * * * * * * * * * * * * * * * //

dimensions      [0 1 -1 0 0 0 0];

internalField   nonuniform List<vector> 
1000
(
(0.29534672 0.00017420093 0)
(0.29495589 0.0005008633 0)
(0.29410674 0.00054164268 0)
(0.29325933 0.00040818229 0)
(0.29258287 0.00026456559 0)
(0.29206917 0.00017620558 0)
(0.29166338 0.00013352216 0)
(0.2913238 0.00011086278 0)
(0.29103045 9.3811867e-05 0)
(0.29077533 7.9090801e-05 0)
(0.29055338 6.7287529e-05 0)
(0.29035929 5.860875e-05 0)
(0.29018771 5.229084e-05 0)
(0.29003431 4.7354979e-05 0)
(0.28989596 4.315202e-05 0)
(0.28977054 3.94085e-05 0)
(0.28965646 3.6047472e-05 0)
(0.28955242 3.3036392e-05 0)
(0.28945732 3.0332751e-05 0)
(0.28937021 2.7888077e-05 0)
(0.28929028 2.566228e-05 0)
(0.28921685 2.3627378e-05 0)
(0.28914932 2.1763869e-05 0)
(0.28908718 2.0055692e-05 0)
(0.28902996 1.8488294e-05 0)
(0.28897725 1.7048057e-05 0)
(0.28892866 1.5722964e-05 0)
(0.28888387 1.4502322e-05 0)
(0.28884258 1.3376943e-05 0)
(0.2888045 1.2338516e-05 0)
(0.28876939 1.1379778e-05 0)
(0.28873701 1.0494025e-05 0)
(0.28870717 9.6754052e-06 0)
(0.28867966 8.918468e-06 0)
(0.2886543 8.2184651e-06 0)
(0.28863095 7.5709075e-06 0)
(0.28860943 6.9718887e-06 0)
(0.28858963 6.4176632e-06 0)
(0.2885714 5.9049785e-06 0)
(0.28855463 5.4306723e-06 0)
(0.28853921 4.9920126e-06 0)
(0.28852504 4.5863098e-06 0)
(0.28851203 4.2112524e-06 0)
(0.28850008 3.8645327e-06 0)
(0.28848911 3.5441844e-06 0)
(0.28847906 3.2482206e-06 0)
(0.28846985 2.974962e-06 0)
(0.28846141 2.7226873e-06 0)
(0.28845369 2.489959e-06 0)
(0.28844663 2.2752845e-06 0)
(0.28844018 2.0774314e-06 0)
(0.2884343 1.8950994e-06 0)
(0.28842893 1.7272313e-06 0)
(0.28842404 1.5726953e-06 0)
(0.28841958 1.430585e-06 0)
(0.28841553 1.2999109e-06 0)
(0.28841185 1.1798965e-06 0)
(0.28840851 1.0696788e-06 0)
(0.28840549 9.6859373e-07 0)
(0.28840275 8.7588525e-07 0)
(0.28840027 7.909867e-07 0)
(0.28839803 7.1323848e-07 0)
(0.28839601 6.4215917e-07 0)
(0.2883942 5.7717061e-07 0)
(0.28839257 5.1786575e-07 0)
(0.28839111 4.6374111e-07 0)
(0.2883898 4.144553e-07 0)
(0.28838863 3.6956772e-07 0)
(0.28838758 3.2879431e-07 0)
(0.28838665 2.9175255e-07 0)
(0.28838583 2.5820865e-07 0)
(0.2883851 2.2782778e-07 0)
(0.28838446 2.004188e-07 0)
(0.28838389 1.7569025e-07 0)
(0.2883834 1.5348703e-07 0)
(0.28838297 1.3355107e-07 0)
(0.28838259 1.1575604e-07 0)
(0.28838226 9.9873611e-08 0)
(0.28838198 8.5800589e-08 0)
(0.28838174 7.3329936e-08 0)
(0.28838154 6.2375992e-08 0)
(0.28838136 5.275171e-08 0)
(0.28838121 4.4385776e-08 0)
(0.28838109 3.710593e-08 0)
(0.28838098 3.0851938e-08 0)
(0.2883809 2.54686e-08 0)
(0.28838083 2.0905294e-08 0)
(0.28838077 1.7022428e-08 0)
(0.28838072 1.3775305e-08 0)
(0.28838068 1.1045954e-08 0)
(0.28838065 8.7895983e-09 0)
(0.28838063 6.9132098e-09 0)
(0.28838061 5.3555864e-09 0)
(0.28838059 4.056115e-09 0)
(0.28838058 2.8944369e-09 0)
(0.28838057 1.870401e-09 0)
(0.28838057 7.4292922e-10 0)
(0.28838056 -3.6004576e-10 0)
(0.28838057 -2.3086075e-09 0)
(0.28838057 -3.4164958e-09 0)
(0.73779223 0.00020399904 0)
(0.73810099 0.00087803358 0)
(0.73755812 0.0012151697 0)
(0.73682585 0.0011744903 0)
(0.73618538 0.00097321567 0)
(0.735645 0.00078173206 0)
(0.73515368 0.00064942345 0)
(0.73468812 0.00055975291 0)
(0.73425092 0.00048887686 0)
(0.73384982 0.00042653247 0)
(0.73348726 0.00037219499 0)
(0.73316045 0.00032702375 0)
(0.73286476 0.00029040728 0)
(0.73259598 0.00026040435 0)
(0.73235094 0.00023507676 0)
(0.73212717 0.0002131327 0)
(0.73192255 0.00019385624 0)
(0.73173516 0.00017681658 0)
(0.73156328 0.00016167562 0)
(0.73140539 0.00014813457 0)
(0.73126018 0.0001359422 0)
(0.73112653 0.00012490219 0)
(0.73100341 0.00011486474 0)
(0.73088995 0.00010571157 0)
(0.73078533 9.7344654e-05 0)
(0.73068884 8.9680113e-05 0)
(0.73059983 8.2645837e-05 0)
(0.73051771 7.6179656e-05 0)
(0.73044194 7.022795e-05 0)
(0.73037202 6.4743869e-05 0)
(0.73030752 5.968627e-05 0)
(0.73024803 5.5018535e-05 0)
(0.73019315 5.0708113e-05 0)
(0.73014256 4.6725728e-05 0)
(0.73009592 4.3045159e-05 0)
(0.73005294 3.9642595e-05 0)
(0.73001334 3.6496554e-05 0)
(0.72997689 3.3587371e-05 0)
(0.72994333 3.0897205e-05 0)
(0.72991246 2.8409606e-05 0)
(0.72988406 2.6109591e-05 0)
(0.72985797 2.3983272e-05 0)
(0.729834 2.2017964e-05 0)
(0.72981199 2.0201848e-05 0)
(0.7297918 1.8524109e-05 0)
(0.72977328 1.6974635e-05 0)
(0.72975631 1.5544166e-05 0)
(0.72974078 1.4224009e-05 0)
(0.72972656 1.3006203e-05 0)
(0.72971356 1.1883255e-05 0)
(0.72970168 1.0848311e-05 0)
(0.72969084 9.8948954e-06 0)
(0.72968095 9.0170905e-06 0)
(0.72967194 8.2092982e-06 0)
(0.72966374 7.4664106e-06 0)
(0.72965628 6.7835786e-06 0)
(0.7296495 6.1563866e-06 0)
(0.72964335 5.5806383e-06 0)
(0.72963777 5.0525229e-06 0)
(0.72963273 4.5684042e-06 0)
(0.72962816 4.1249914e-06 0)
(0.72962404 3.7191406e-06 0)
(0.72962033 3.3480187e-06 0)
(0.72961699 3.0089075e-06 0)
(0.72961398 2.6993694e-06 0)
(0.72961129 2.4170642e-06 0)
(0.72960887 2.1599067e-06 0)
(0.72960672 1.9258845e-06 0)
(0.7296048 1.7132171e-06 0)
(0.72960308 1.520184e-06 0)
(0.72960157 1.3452755e-06 0)
(0.72960023 1.1870203e-06 0)
(0.72959904 1.0441367e-06 0)
(0.729598 9.1536997e-07 0)
(0.72959709 7.9963519e-07 0)
(0.72959629 6.9585347e-07 0)
(0.72959559 6.0309592e-07 0)
(0.72959499 5.2043041e-07 0)
(0.72959447 4.4705702e-07 0)
(0.72959403 3.8215674e-07 0)
(0.72959364 3.2502664e-07 0)
(0.72959332 2.7494335e-07 0)
(0.72959305 2.3128591e-07 0)
(0.72959281 1.9340883e-07 0)
(0.72959262 1.6075445e-07 0)
(0.72959246 1.3275539e-07 0)
(0.72959233 1.0891292e-07 0)
(0.72959222 8.8737696e-08 0)
(0.72959213 7.1774418e-08 0)
(0.72959206 5.762842e-08 0)
(0.729592 4.5872792e-08 0)
(0.72959196 3.6224317e-08 0)
(0.72959192 2.8236187e-08 0)
(0.72959189 2.175753e-08 0)
(0.72959187 1.625088e-08 0)
(0.72959185 1.1739379e-08 0)
(0.72959184 7.5064954e-09 0)
(0.72959183 3.8140401e-09 0)
(0.72959184 -5.0599625e-10 0)
(0.72959182 -4.4754132e-09 0)
(1.0494316 0.00016318835 0)
(1.0503759 0.00082653462 0)
(1.0503538 0.0012787007 0)
(1.0501287 0.0013786036 0)
(1.0500283 0.0012688706 0)
(1.050024 0.0011163825 0)
(1.0500131 0.00099540616 0)
(1.0499515 0.00090626884 0)
(1.0498496 0.0008293808 0)
(1.0497318 0.00075454855 0)
(1.0496131 0.00068248182 0)
(1.0494977 0.00061684379 0)
(1.0493855 0.0005592601 0)
(1.0492762 0.00050902714 0)
(1.0491703 0.00046464678 0)
(1.0490691 0.00042491467 0)
(1.048973 0.00038911754 0)
(1.0488823 0.00035681147 0)
(1.0487971 0.00032761958 0)
(1.048717 0.00030117238 0)
(1.0486419 0.00027712784 0)
(1.0485718 0.00025519532 0)
(1.0485062 0.0002351371 0)
(1.0484451 0.00021675639 0)
(1.0483882 0.00019988486 0)
(1.0483353 0.00018437559 0)
(1.0482861 0.0001700995 0)
(1.0482404 0.00015694342 0)
(1.048198 0.00014480779 0)
(1.0481586 0.00013360469 0)
(1.0481222 0.00012325581 0)
(1.0480884 0.00011369105 0)
(1.0480572 0.00010484733 0)
(1.0480282 9.6667713e-05 0)
(1.0480015 8.9100594e-05 0)
(1.0479768 8.2099083e-05 0)
(1.047954 7.5620374e-05 0)
(1.0479329 6.9625362e-05 0)
(1.0479135 6.4078145e-05 0)
(1.0478956 5.8945776e-05 0)
(1.0478791 5.4197874e-05 0)
(1.047864 4.9806466e-05 0)
(1.04785 4.5745671e-05 0)
(1.0478371 4.1991592e-05 0)
(1.0478253 3.852206e-05 0)
(1.0478145 3.5316572e-05 0)
(1.0478045 3.235607e-05 0)
(1.0477954 2.9622898e-05 0)
(1.047787 2.7100621e-05 0)
(1.0477793 2.4774006e-05 0)
(1.0477723 2.2628858e-05 0)
(1.0477659 2.0652009e-05 0)
(1.04776 1.8831177e-05 0)
(1.0477547 1.7154975e-05 0)
(1.0477498 1.5612776e-05 0)
(1.0477454 1.4194725e-05 0)
(1.0477413 1.2891619e-05 0)
(1.0477376 1.1694933e-05 0)
(1.0477343 1.05967e-05 0)
(1.0477312 9.5895449e-06 0)
(1.0477285 8.6665767e-06 0)
(1.047726 7.8214235e-06 0)
(1.0477238 7.0481329e-06 0)
(1.0477217 6.3412054e-06 0)
(1.0477199 5.6955057e-06 0)
(1.0477182 5.1063024e-06 0)
(1.0477168 4.5691811e-06 0)
(1.0477154 4.0800816e-06 0)
(1.0477142 3.6352191e-06 0)
(1.0477132 3.2311262e-06 0)
(1.0477122 2.864573e-06 0)
(1.0477114 2.5326053e-06 0)
(1.0477106 2.23247e-06 0)
(1.04771 1.9616574e-06 0)
(1.0477094 1.7178232e-06 0)
(1.0477089 1.498827e-06 0)
(1.0477084 1.3026598e-06 0)
(1.047708 1.1274874e-06 0)
(1.0477077 9.7157406e-07 0)
(1.0477074 8.333282e-07 0)
(1.0477071 7.1122702e-07 0)
(1.0477069 6.0387716e-07 0)
(1.0477067 5.0992797e-07 0)
(1.0477066 4.2814851e-07 0)
(1.0477064 3.5732501e-07 0)
(1.0477063 2.9637789e-07 0)
(1.0477062 2.4421326e-07 0)
(1.0477061 1.9990039e-07 0)
(1.0477061 1.6244547e-07 0)
(1.047706 1.310824e-07 0)
(1.047706 1.0490338e-07 0)
(1.047706 8.3314489e-08 0)
(1.0477059 6.5465117e-08 0)
(1.0477059 5.0901022e-08 0)
(1.0477059 3.8878573e-08 0)
(1.0477059 2.8957997e-08 0)
(1.0477059 2.0728416e-08 0)
(1.0477058 1.3247801e-08 0)
(1.0477059 7.4190154e-09 0)
(1.0477058 8.6973344e-10 0)
(1.2468686 0.00010204774 0)
(1.2482111 0.00056205525 0)
(1.2485026 0.00091694095 0)
(1.2485991 0.0010351049 0)
(1.2488933 0.00099037512 0)
(1.2493427 0.00089933281 0)
(1.2497955 0.00082355515 0)
(1.2501725 0.000768673 0)
(1.2504751 0.00072089837 0)
(1.2507322 0.00067166127 0)
(1.2509638 0.00062117505 0)
(1.251176 0.00057279977 0)
(1.2513683 0.00052861996 0)
(1.2515407 0.00048873821 0)
(1.251695 0.0004523838 0)
(1.2518338 0.00041886861 0)
(1.2519595 0.00038783664 0)
(1.2520737 0.00035912064 0)
(1.2521777 0.00033257863 0)
(1.2522724 0.00030804111 0)
(1.2523588 0.00028532905 0)
(1.2524377 0.00026428049 0)
(1.25251 0.00024475807 0)
(1.2525762 0.00022664439 0)
(1.2526369 0.00020983423 0)
(1.2526926 0.00019423124 0)
(1.2527437 0.00017974634 0)
(1.2527907 0.00016629805 0)
(1.2528339 0.0001538115 0)
(1.2528737 0.00014221823 0)
(1.2529102 0.00013145487 0)
(1.2529438 0.00012146312 0)
(1.2529748 0.00011218869 0)
(1.2530032 0.00010358156 0)
(1.2530294 9.5595018e-05 0)
(1.2530535 8.8186005e-05 0)
(1.2530756 8.1314201e-05 0)
(1.253096 7.494241e-05 0)
(1.2531147 6.9035724e-05 0)
(1.2531319 6.3561942e-05 0)
(1.2531477 5.8490786e-05 0)
(1.2531622 5.3794337e-05 0)
(1.2531755 4.9446294e-05 0)
(1.2531877 4.5422428e-05 0)
(1.2531989 4.1699874e-05 0)
(1.2532092 3.8257592e-05 0)
(1.2532186 3.5075692e-05 0)
(1.2532271 3.2135899e-05 0)
(1.253235 2.9420908e-05 0)
(1.2532422 2.6914845e-05 0)
(1.2532487 2.4602653e-05 0)
(1.2532547 2.247055e-05 0)
(1.2532601 2.0505436e-05 0)
(1.2532651 1.8695353e-05 0)
(1.2532696 1.7028908e-05 0)
(1.2532737 1.5495732e-05 0)
(1.2532774 1.4085924e-05 0)
(1.2532808 1.2790509e-05 0)
(1.2532838 1.1600879e-05 0)
(1.2532866 1.0509262e-05 0)
(1.2532891 9.5081964e-06 0)
(1.2532913 8.5909664e-06 0)
(1.2532933 7.7511034e-06 0)
(1.2532951 6.9828157e-06 0)
(1.2532968 6.2805065e-06 0)
(1.2532982 5.6391945e-06 0)
(1.2532995 5.0540466e-06 0)
(1.2533007 4.5207938e-06 0)
(1.2533017 4.0352759e-06 0)
(1.2533026 3.5938495e-06 0)
(1.2533035 3.1929432e-06 0)
(1.2533042 2.8294606e-06 0)
(1.2533048 2.500344e-06 0)
(1.2533054 2.2029695e-06 0)
(1.2533058 1.9347183e-06 0)
(1.2533063 1.6933675e-06 0)
(1.2533066 1.4766673e-06 0)
(1.2533069 1.2827271e-06 0)
(1.2533072 1.1095972e-06 0)
(1.2533074 9.5565674e-07 0)
(1.2533076 8.1919729e-07 0)
(1.2533078 6.9881552e-07 0)
(1.2533079 5.9299264e-07 0)
(1.253308 5.0050512e-07 0)
(1.2533081 4.1998831e-07 0)
(1.2533082 3.5037622e-07 0)
(1.2533083 2.9043241e-07 0)
(1.2533083 2.3924135e-07 0)
(1.2533084 1.9568198e-07 0)
(1.2533084 1.5898736e-07 0)
(1.2533084 1.281487e-07 0)
(1.2533085 1.0252821e-07 0)
(1.2533085 8.1246271e-08 0)
(1.2533085 6.3717629e-08 0)
(1.2533085 4.9345288e-08 0)
(1.2533085 3.7347221e-08 0)
(1.2533085 2.7833916e-08 0)
(1.2533085 1.9006758e-08 0)
(1.2533085 1.3065377e-08 0)
(1.2533085 5.7526796e-09 0)
(1.3423603 3.4447224e-05 0)
(1.3438944 0.00019676503 0)
(1.3443247 0.00032836565 0)
(1.344559 0.00037773804 0)
(1.3450321 0.00036654639 0)
(1.3457035 0.0003362334 0)
(1.3463968 0.00031050039 0)
(1.3470117 0.00029237779 0)
(1.3475425 0.00027686463 0)
(1.3480192 0.00026052029 0)
(1.3484639 0.00024326211 0)
(1.3488826 0.00022636331 0)
(1.3492736 0.00021069722 0)
(1.3496358 0.000196378 0)
(1.3499705 0.00018315664 0)
(1.3502805 0.00017079887 0)
(1.3505681 0.00015919548 0)
(1.3508351 0.00014831166 0)
(1.3510831 0.00013812222 0)
(1.3513132 0.00012858856 0)
(1.3515267 0.00011966479 0)
(1.3517248 0.00011130821 0)
(1.3519084 0.00010348288 0)
(1.3520787 9.6158088e-05 0)
(1.3522366 8.9305747e-05 0)
(1.3523829 8.2899076e-05 0)
(1.3525184 7.6912299e-05 0)
(1.3526439 7.1320935e-05 0)
(1.3527601 6.6101742e-05 0)
(1.3528676 6.1232731e-05 0)
(1.3529671 5.669294e-05 0)
(1.353059 5.2462477e-05 0)
(1.353144 4.8522358e-05 0)
(1.3532225 4.4854611e-05 0)
(1.353295 4.1442131e-05 0)
(1.3533619 3.826879e-05 0)
(1.3534236 3.5319262e-05 0)
(1.3534805 3.2579131e-05 0)
(1.353533 3.0034727e-05 0)
(1.3535813 2.7673234e-05 0)
(1.3536258 2.5482517e-05 1.871946e-33)
(1.3536667 2.3451219e-05 0)
(1.3537043 2.1568606e-05 0)
(1.3537389 1.9824661e-05 0)
(1.3537707 1.8209921e-05 0)
(1.3537998 1.671557e-05 0)
(1.3538266 1.5333285e-05 0)
(1.3538511 1.4055334e-05 0)
(1.3538735 1.2874419e-05 0)
(1.3538941 1.1783763e-05 0)
(1.3539129 1.0776976e-05 0)
(1.35393 9.8481401e-06 0)
(1.3539457 8.9916729e-06 0)
(1.35396 8.2024081e-06 0)
(1.353973 7.4754737e-06 0)
(1.3539849 6.806378e-06 0)
(1.3539957 6.1908789e-06 0)
(1.3540055 5.6250568e-06 0)
(1.3540144 5.1052319e-06 0)
(1.3540224 4.6280178e-06 0)
(1.3540297 4.1902098e-06 0)
(1.3540363 3.7888718e-06 0)
(1.3540423 3.421225e-06 0)
(1.3540476 3.0847375e-06 0)
(1.3540525 2.7770063e-06 0)
(1.3540568 2.4958449e-06 0)
(1.3540607 2.2391781e-06 0)
(1.3540642 2.0051319e-06 0)
(1.3540673 1.7919211e-06 0)
(1.3540701 1.5979375e-06 0)
(1.3540726 1.4216484e-06 0)
(1.3540748 1.2616862e-06 0)
(1.3540767 1.1167401e-06 0)
(1.3540784 9.8564288e-07 0)
(1.3540799 8.6727253e-07 0)
(1.3540813 7.6064057e-07 0)
(1.3540824 6.647862e-07 0)
(1.3540834 5.7886249e-07 0)
(1.3540843 5.0203959e-07 0)
(1.354085 4.3359417e-07 0)
(1.3540857 3.728039e-07 0)
(1.3540862 3.1903818e-07 0)
(1.3540867 2.7165887e-07 0)
(1.3540871 2.3011899e-07 0)
(1.3540874 1.9385039e-07 0)
(1.3540877 1.6237015e-07 0)
(1.3540879 1.3516775e-07 0)
(1.3540881 1.1182576e-07 0)
(1.3540883 9.1888627e-08 0)
(1.3540884 7.4989982e-08 0)
(1.3540885 6.0730726e-08 0)
(1.3540886 4.8778377e-08 0)
(1.3540887 3.8815158e-08 2.9487671e-35)
(1.3540887 3.0507437e-08 0)
(1.3540888 2.3714339e-08 0)
(1.3540888 1.7992416e-08 8.8463e-36)
(1.3540888 1.3511928e-08 0)
(1.3540889 9.3318663e-09 0)
(1.3540889 6.4409523e-09 0)
(1.3540889 2.8894115e-09 0)
(1.3423601 -3.4446994e-05 0)
(1.3438943 -0.0001967646 0)
(1.3443247 -0.00032836972 0)
(1.3445589 -0.00037774209 0)
(1.3450321 -0.00036654034 0)
(1.3457034 -0.00033621073 0)
(1.3463967 -0.0003104635 0)
(1.3470117 -0.00029233254 0)
(1.3475425 -0.00027681584 0)
(1.3480192 -0.0002604699 0)
(1.3484639 -0.00024321103 0)
(1.3488825 -0.00022631253 0)
(1.3492736 -0.00021064803 0)
(1.3496358 -0.00019633169 0)
(1.3499705 -0.00018311405 0)
(1.3502805 -0.00017076062 0)
(1.3505681 -0.00015916183 0)
(1.3508351 -0.00014828293 0)
(1.3510831 -0.00013809834 0)
(1.3513132 -0.00012856959 0)
(1.3515267 -0.00011965041 0)
(1.3517248 -0.00011129831 0)
(1.3519084 -0.00010347699 0)
(1.3520787 -9.6156033e-05 0)
(1.3522366 -8.9306984e-05 0)
(1.3523829 -8.2903371e-05 0)
(1.3525184 -7.6919122e-05 0)
(1.3526439 -7.1330112e-05 0)
(1.3527601 -6.6112771e-05 0)
(1.3528676 -6.1245477e-05 0)
(1.3529671 -5.6706939e-05 0)
(1.353059 -5.2477627e-05 0)
(1.353144 -4.8538232e-05 0)
(1.3532225 -4.4871157e-05 0)
(1.353295 -4.1458968e-05 0)
(1.3533619 -3.8285894e-05 0)
(1.3534236 -3.5336284e-05 0)
(1.3534805 -3.2596089e-05 0)
(1.353533 -3.0051314e-05 0)
(1.3535813 -2.7689486e-05 0)
(1.3536258 -2.5498152e-05 -1.871946e-33)
(1.3536667 -2.3466304e-05 0)
(1.3537043 -2.1582891e-05 0)
(1.3537389 -1.9838222e-05 0)
(1.3537707 -1.8222525e-05 0)
(1.3537998 -1.6727316e-05 0)
(1.3538266 -1.5343968e-05 0)
(1.3538511 -1.406506e-05 0)
(1.3538735 -1.2883e-05 0)
(1.3538941 -1.1791333e-05 0)
(1.3539129 -1.0783379e-05 0)
(1.35393 -9.8535237e-06 0)
(1.3539457 -8.9959068e-06 0)
(1.35396 -8.2056684e-06 0)
(1.353973 -7.4776639e-06 0)
(1.3539849 -6.8076839e-06 0)
(1.3539957 -6.1912213e-06 0)
(1.3540055 -5.624663e-06 0)
(1.3540143 -5.1040435e-06 0)
(1.3540224 -4.6262382e-06 0)
(1.3540297 -4.1877871e-06 0)
(1.3540363 -3.7860153e-06 0)
(1.3540423 -3.417887e-06 0)
(1.3540476 -3.0811099e-06 0)
(1.3540525 -2.77303e-06 0)
(1.3540568 -2.491704e-06 0)
(1.3540607 -2.2348069e-06 0)
(1.3540642 -2.0006914e-06 0)
(1.3540673 -1.7873306e-06 0)
(1.3540701 -1.5933498e-06 0)
(1.3540726 -1.4169775e-06 0)
(1.3540748 -1.2570669e-06 0)
(1.3540767 -1.1120775e-06 0)
(1.3540784 -9.810712e-07 0)
(1.3540799 -8.6269909e-07 0)
(1.3540812 -7.5619041e-07 0)
(1.3540824 -6.6036509e-07 0)
(1.3540834 -5.746018e-07 0)
(1.3540843 -4.9785198e-07 0)
(1.354085 -4.2960583e-07 0)
(1.3540857 -3.6892706e-07 0)
(1.3540862 -3.1540548e-07 0)
(1.3540867 -2.6818657e-07 0)
(1.3540871 -2.2693216e-07 0)
(1.3540874 -1.9085955e-07 0)
(1.3540877 -1.5970339e-07 0)
(1.3540879 -1.3273319e-07 0)
(1.3540881 -1.0974251e-07 0)
(1.3540883 -9.0054025e-08 0)
(1.3540884 -7.3530002e-08 0)
(1.3540885 -5.9542888e-08 0)
(1.3540886 -4.8011122e-08 0)
(1.3540887 -3.8364329e-08 -2.9487671e-35)
(1.3540887 -3.0525535e-08 0)
(1.3540888 -2.4032469e-08 0)
(1.3540888 -1.8638298e-08 -8.8463e-36)
(1.3540888 -1.4405168e-08 0)
(1.3540888 -1.0381852e-08 0)
(1.3540889 -8.2122915e-09 0)
(1.3540889 -5.0788816e-09 0)
(1.2468686 -0.00010204832 0)
(1.248211 -0.00056206819 0)
(1.2485025 -0.00091696325 0)
(1.2485991 -0.001035126 0)
(1.2488932 -0.0009903855 0)
(1.2493426 -0.00089932915 0)
(1.2497954 -0.00082353912 0)
(1.2501724 -0.00076864841 0)
(1.250475 -0.00072086809 0)
(1.2507321 -0.00067162713 0)
(1.2509638 -0.00062113832 0)
(1.251176 -0.0005727618 0)
(1.2513683 -0.0005285822 0)
(1.2515407 -0.00048870189 0)
(1.251695 -0.00045234993 0)
(1.2518338 -0.00041883782 0)
(1.2519595 -0.00038780946 0)
(1.2520737 -0.00035909728 0)
(1.2521777 -0.00033255931 0)
(1.2522724 -0.00030802572 0)
(1.2523588 -0.00028531758 0)
(1.2524378 -0.00026427263 0)
(1.25251 -0.00024475368 0)
(1.2525762 -0.00022664304 0)
(1.2526369 -0.00020983574 0)
(1.2526926 -0.0001942352 0)
(1.2527437 -0.00017975255 0)
(1.2527907 -0.0001663061 0)
(1.2528339 -0.0001538212 0)
(1.2528737 -0.0001422292 0)
(1.2529102 -0.00013146697 0)
(1.2529438 -0.00012147599 0)
(1.2529748 -0.00011220224 0)
(1.2530032 -0.00010359547 0)
(1.2530294 -9.5609235e-05 0)
(1.2530535 -8.820024e-05 0)
(1.2530756 -8.1328434e-05 0)
(1.253096 -7.4956395e-05 0)
(1.2531147 -6.9049462e-05 0)
(1.2531319 -6.3575212e-05 0)
(1.2531477 -5.8503616e-05 0)
(1.2531622 -5.3806535e-05 0)
(1.2531755 -4.9457901e-05 0)
(1.2531877 -4.5433267e-05 0)
(1.2531989 -4.1710004e-05 0)
(1.2532091 -3.826686e-05 0)
(1.2532185 -3.5084164e-05 0)
(1.2532271 -3.2143435e-05 0)
(1.253235 -2.9427594e-05 0)
(1.2532421 -2.6920569e-05 0)
(1.2532487 -2.4607512e-05 0)
(1.2532546 -2.2474451e-05 0)
(1.2532601 -2.0508502e-05 0)
(1.253265 -1.869752e-05 0)
(1.2532695 -1.7030314e-05 0)
(1.2532736 -1.5496329e-05 0)
(1.2532773 -1.408587e-05 0)
(1.2532807 -1.2789763e-05 0)
(1.2532838 -1.15996e-05 0)
(1.2532865 -1.0507428e-05 0)
(1.253289 -9.5059678e-06 0)
(1.2532912 -8.5883238e-06 0)
(1.2532933 -7.7481954e-06 0)
(1.2532951 -6.979612e-06 0)
(1.2532967 -6.2771473e-06 0)
(1.2532982 -5.6356444e-06 0)
(1.2532995 -5.0504277e-06 0)
(1.2533006 -4.5170557e-06 0)
(1.2533017 -4.0315313e-06 0)
(1.2533026 -3.5900434e-06 0)
(1.2533034 -3.1891738e-06 0)
(1.2533041 -2.8256626e-06 0)
(1.2533048 -2.4966127e-06 0)
(1.2533053 -2.199242e-06 0)
(1.2533058 -1.9310831e-06 0)
(1.2533062 -1.6897586e-06 0)
(1.2533066 -1.4731772e-06 0)
(1.2533069 -1.2792968e-06 0)
(1.2533072 -1.1063167e-06 0)
(1.2533074 -9.5246631e-07 0)
(1.2533076 -8.1619137e-07 0)
(1.2533078 -6.9594003e-07 0)
(1.2533079 -5.9033747e-07 0)
(1.253308 -4.9801133e-07 0)
(1.2533081 -4.1774652e-07 0)
(1.2533082 -3.4832809e-07 0)
(1.2533083 -2.8866103e-07 0)
(1.2533083 -2.3767933e-07 0)
(1.2533084 -1.9441276e-07 0)
(1.2533084 -1.5794374e-07 0)
(1.2533084 -1.2741593e-07 0)
(1.2533084 -1.0203673e-07 0)
(1.2533085 -8.1092466e-08 0)
(1.2533085 -6.3830458e-08 0)
(1.2533085 -4.9762042e-08 0)
(1.2533085 -3.798431e-08 0)
(1.2533085 -2.8646991e-08 0)
(1.2533085 -1.9894246e-08 0)
(1.2533085 -1.4252696e-08 0)
(1.2533085 -7.0915618e-09 0)
(1.0494315 -0.00016318706 0)
(1.0503758 -0.00082652151 0)
(1.0503537 -0.0012786847 0)
(1.0501286 -0.001378596 0)
(1.0500282 -0.0012688718 0)
(1.0500239 -0.001116388 0)
(1.0500131 -0.00099540937 0)
(1.0499515 -0.0009062664 0)
(1.0498496 -0.00082937198 0)
(1.0497318 -0.00075453454 0)
(1.0496131 -0.00068246403 0)
(1.0494977 -0.00061682353 0)
(1.0493855 -0.00055923853 0)
(1.0492762 -0.00050900527 0)
(1.0491704 -0.00046462567 0)
(1.0490691 -0.00042489503 0)
(1.048973 -0.00038910005 0)
(1.0488824 -0.00035679636 0)
(1.0487971 -0.00032760716 0)
(1.048717 -0.00030116255 0)
(1.048642 -0.00027712071 0)
(1.0485718 -0.00025519059 0)
(1.0485063 -0.00023513478 0)
(1.0484452 -0.00021675606 0)
(1.0483883 -0.00019988652 0)
(1.0483353 -0.00018437881 0)
(1.0482861 -0.00017010425 0)
(1.0482404 -0.00015694925 0)
(1.048198 -0.00014481472 0)
(1.0481587 -0.0001336123 0)
(1.0481222 -0.00012326413 0)
(1.0480884 -0.00011369971 0)
(1.0480572 -0.0001048564 0)
(1.0480283 -9.667685e-05 0)
(1.0480015 -8.9109885e-05 0)
(1.0479768 -8.2108221e-05 0)
(1.047954 -7.5629482e-05 0)
(1.0479329 -6.9634154e-05 0)
(1.0479135 -6.4086753e-05 0)
(1.0478956 -5.895394e-05 0)
(1.0478791 -5.420575e-05 0)
(1.0478639 -4.981381e-05 0)
(1.0478499 -4.5752636e-05 0)
(1.0478371 -4.1997953e-05 0)
(1.0478253 -3.8527987e-05 0)
(1.0478144 -3.5321851e-05 0)
(1.0478045 -3.2360864e-05 0)
(1.0477953 -2.9627013e-05 0)
(1.0477869 -2.7104236e-05 0)
(1.0477793 -2.4776943e-05 0)
(1.0477723 -2.2631293e-05 0)
(1.0477658 -2.0653785e-05 0)
(1.04776 -1.8832493e-05 0)
(1.0477546 -1.7155688e-05 0)
(1.0477497 -1.5613082e-05 0)
(1.0477453 -1.4194498e-05 0)
(1.0477412 -1.2891066e-05 0)
(1.0477376 -1.1693935e-05 0)
(1.0477342 -1.0595459e-05 0)
(1.0477312 -9.5879525e-06 0)
(1.0477284 -8.6648374e-06 0)
(1.0477259 -7.8194252e-06 0)
(1.0477237 -7.0460609e-06 0)
(1.0477217 -6.3389467e-06 0)
(1.0477198 -5.6932427e-06 0)
(1.0477182 -5.1039138e-06 0)
(1.0477167 -4.5668289e-06 0)
(1.0477154 -4.0776419e-06 0)
(1.0477142 -3.632852e-06 0)
(1.0477131 -3.2287012e-06 0)
(1.0477122 -2.862234e-06 0)
(1.0477113 -2.5302234e-06 0)
(1.0477106 -2.2301927e-06 0)
(1.0477099 -1.9593542e-06 0)
(1.0477093 -1.7156313e-06 0)
(1.0477088 -1.4966221e-06 0)
(1.0477084 -1.3005867e-06 0)
(1.047708 -1.1254228e-06 0)
(1.0477077 -9.6965505e-07 0)
(1.0477074 -8.3143753e-07 0)
(1.0477071 -7.0950892e-07 0)
(1.0477069 -6.0221323e-07 0)
(1.0477067 -5.0845272e-07 0)
(1.0477065 -4.267458e-07 0)
(1.0477064 -3.561341e-07 0)
(1.0477063 -2.9527729e-07 0)
(1.0477062 -2.43332e-07 0)
(1.0477061 -1.9911553e-07 0)
(1.0477061 -1.6189304e-07 0)
(1.047706 -1.306326e-07 0)
(1.047706 -1.0469064e-07 0)
(1.0477059 -8.3193317e-08 0)
(1.0477059 -6.5584739e-08 0)
(1.0477059 -5.1097092e-08 0)
(1.0477059 -3.929092e-08 0)
(1.0477058 -2.9473607e-08 0)
(1.0477058 -2.1297539e-08 0)
(1.0477058 -1.3824618e-08 0)
(1.0477058 -7.6924489e-09 0)
(1.0477058 -1.023126e-09 0)
(0.73779222 -0.00020399165 0)
(0.738101 -0.00087801061 0)
(0.73755811 -0.0012151466 0)
(0.73682585 -0.0011744841 0)
(0.73618539 -0.00097323297 0)
(0.73564502 -0.00078176571 0)
(0.73515369 -0.00064946042 0)
(0.73468812 -0.00055978312 0)
(0.73425092 -0.0004888971 0)
(0.73384981 -0.00042654401 0)
(0.73348725 -0.00037220032 0)
(0.73316045 -0.00032702475 0)
(0.73286476 -0.00029040519 0)
(0.73259599 -0.00026040025 0)
(0.73235096 -0.00023507163 0)
(0.73212719 -0.00021312747 0)
(0.73192258 -0.00019385142 0)
(0.7317352 -0.00017681257 0)
(0.73156331 -0.00016167251 0)
(0.73140543 -0.00014813252 0)
(0.73126022 -0.00013594111 0)
(0.73112657 -0.00012490209 0)
(0.73100345 -0.00011486544 0)
(0.73088999 -0.00010571308 0)
(0.73078537 -9.7346756e-05 0)
(0.73068888 -8.9682803e-05 0)
(0.73059987 -8.2648882e-05 0)
(0.73051774 -7.6183079e-05 0)
(0.73044196 -7.0231541e-05 0)
(0.73037205 -6.4747666e-05 0)
(0.73030754 -5.9690084e-05 0)
(0.73024804 -5.5022434e-05 0)
(0.73019316 -5.0711926e-05 0)
(0.73014256 -4.6729528e-05 0)
(0.73009592 -4.3048789e-05 0)
(0.73005293 -3.9646151e-05 0)
(0.73001334 -3.6499895e-05 0)
(0.72997688 -3.3590589e-05 0)
(0.72994331 -3.0900167e-05 0)
(0.72991244 -2.8412421e-05 0)
(0.72988404 -2.6112135e-05 0)
(0.72985794 -2.3985644e-05 0)
(0.72983397 -2.2020047e-05 0)
(0.72981196 -2.0203752e-05 0)
(0.72979176 -1.8525723e-05 0)
(0.72977324 -1.6976059e-05 0)
(0.72975627 -1.5545293e-05 0)
(0.72974073 -1.4224951e-05 0)
(0.72972651 -1.300686e-05 0)
(0.72971351 -1.1883732e-05 0)
(0.72970163 -1.0848514e-05 0)
(0.72969079 -9.8949406e-06 0)
(0.7296809 -9.0168934e-06 0)
(0.72967189 -8.2089657e-06 0)
(0.72966369 -7.465864e-06 0)
(0.72965623 -6.7829344e-06 0)
(0.72964945 -6.1555723e-06 0)
(0.7296433 -5.5797602e-06 0)
(0.72963772 -5.05151e-06 0)
(0.72963268 -4.5673685e-06 0)
(0.72962812 -4.1238626e-06 0)
(0.729624 -3.7180171e-06 0)
(0.72962028 -3.3468282e-06 0)
(0.72961694 -3.0077507e-06 0)
(0.72961394 -2.6981727e-06 0)
(0.72961125 -2.4159144e-06 0)
(0.72960883 -2.1587279e-06 0)
(0.72960668 -1.9247663e-06 0)
(0.72960476 -1.712083e-06 0)
(0.72960305 -1.5191121e-06 0)
(0.72960153 -1.3441889e-06 0)
(0.72960019 -1.186002e-06 0)
(0.72959901 -1.0431116e-06 0)
(0.72959797 -9.144125e-07 0)
(0.72959706 -7.9867157e-07 0)
(0.72959626 -6.9496489e-07 0)
(0.72959557 -6.0221158e-07 0)
(0.72959497 -5.196238e-07 0)
(0.72959445 -4.4625885e-07 0)
(0.729594 -3.8144696e-07 0)
(0.72959362 -3.2433795e-07 0)
(0.7295933 -2.7434714e-07 0)
(0.72959303 -2.3071485e-07 0)
(0.7295928 -1.9293934e-07 0)
(0.7295926 -1.6031987e-07 0)
(0.72959245 -1.3242275e-07 0)
(0.72959231 -1.0861516e-07 0)
(0.7295922 -8.8546336e-08 0)
(0.72959212 -7.1624969e-08 0)
(0.72959205 -5.7583546e-08 0)
(0.72959199 -4.586372e-08 0)
(0.72959194 -3.6303469e-08 0)
(0.72959191 -2.8324483e-08 0)
(0.72959188 -2.1886703e-08 0)
(0.72959186 -1.6424766e-08 0)
(0.72959184 -1.1948496e-08 0)
(0.72959183 -7.7040469e-09 0)
(0.72959182 -3.9444566e-09 0)
(0.72959182 9.0222479e-10 0)
(0.7295918 4.9779307e-09 0)
(0.29534684 -0.00017419152 0)
(0.29495596 -0.00050084938 0)
(0.29410676 -0.00054163644 0)
(0.29325935 -0.00040819053 0)
(0.29258289 -0.0002645888 0)
(0.29206918 -0.00017623591 0)
(0.29166337 -0.00013355043 0)
(0.29132377 -0.00011088364 0)
(0.29103041 -9.3825319e-05 0)
(0.29077529 -7.909914e-05 0)
(0.29055335 -6.729295e-05 0)
(0.29035925 -5.8612375e-05 0)
(0.29018769 -5.2293168e-05 0)
(0.29003429 -4.7356445e-05 0)
(0.28989595 -4.3152957e-05 0)
(0.28977053 -3.9409297e-05 0)
(0.28965646 -3.6048206e-05 0)
(0.28955243 -3.3037236e-05 0)
(0.28945733 -3.0333606e-05 0)
(0.28937022 -2.788907e-05 0)
(0.28929029 -2.5663264e-05 0)
(0.28921686 -2.3628481e-05 0)
(0.28914934 -2.1764928e-05 0)
(0.2890872 -2.0056837e-05 0)
(0.28902998 -1.8489342e-05 0)
(0.28897726 -1.704915e-05 0)
(0.28892867 -1.5723928e-05 0)
(0.28888388 -1.4503314e-05 0)
(0.28884259 -1.3377785e-05 0)
(0.28880451 -1.2339369e-05 0)
(0.2887694 -1.1380475e-05 0)
(0.28873702 -1.0494735e-05 0)
(0.28870717 -9.6759556e-06 0)
(0.28867966 -8.9190268e-06 0)
(0.28865431 -8.2188707e-06 0)
(0.28863095 -7.5713306e-06 0)
(0.28860943 -6.9721619e-06 0)
(0.28858962 -6.417953e-06 0)
(0.28857139 -5.9051294e-06 0)
(0.28855462 -5.43085e-06 0)
(0.2885392 -4.9920565e-06 0)
(0.28852503 -4.5863799e-06 0)
(0.28851201 -4.2111995e-06 0)
(0.28850006 -3.8645148e-06 0)
(0.2884891 -3.5440482e-06 0)
(0.28847904 -3.2481178e-06 0)
(0.28846983 -2.9747507e-06 0)
(0.28846139 -2.7225171e-06 0)
(0.28845367 -2.4896847e-06 0)
(0.28844662 -2.2750502e-06 0)
(0.28844017 -2.0771031e-06 0)
(0.28843428 -1.8948193e-06 0)
(0.28842891 -1.7268627e-06 0)
(0.28842402 -1.5723752e-06 0)
(0.28841957 -1.4301875e-06 0)
(0.28841551 -1.2995711e-06 0)
(0.28841184 -1.1794852e-06 0)
(0.2884085 -1.0693258e-06 0)
(0.28840547 -9.6817935e-07 0)
(0.28840273 -8.7553707e-07 0)
(0.28840025 -7.9058157e-07 0)
(0.28839802 -7.1289882e-07 0)
(0.288396 -6.4177013e-07 0)
(0.28839419 -5.7685233e-07 0)
(0.28839256 -5.174996e-07 0)
(0.28839109 -4.6344262e-07 0)
(0.28838978 -4.1411362e-07 0)
(0.28838861 -3.6929662e-07 0)
(0.28838757 -3.2847935e-07 0)
(0.28838664 -2.9150366e-07 0)
(0.28838582 -2.5791906e-07 0)
(0.28838509 -2.2760628e-07 0)
(0.28838445 -2.0015538e-07 0)
(0.28838389 -1.7549055e-07 0)
(0.28838339 -1.5324853e-07 0)
(0.28838296 -1.3337871e-07 0)
(0.28838258 -1.1554418e-07 0)
(0.28838226 -9.9724379e-08 0)
(0.28838198 -8.5615396e-08 0)
(0.28838174 -7.3210323e-08 0)
(0.28838153 -6.2220017e-08 0)
(0.28838136 -5.2658181e-08 0)
(0.28838121 -4.4259174e-08 0)
(0.28838108 -3.7044511e-08 0)
(0.28838098 -3.0756646e-08 0)
(0.28838089 -2.5435233e-08 0)
(0.28838082 -2.0840815e-08 0)
(0.28838076 -1.7022618e-08 0)
(0.28838072 -1.3744648e-08 0)
(0.28838068 -1.1076558e-08 0)
(0.28838065 -8.785204e-09 0)
(0.28838062 -6.9578796e-09 0)
(0.2883806 -5.3360923e-09 0)
(0.28838059 -4.0732908e-09 0)
(0.28838058 -2.8854141e-09 0)
(0.28838057 -1.8689197e-09 0)
(0.28838056 -7.2579795e-10 0)
(0.28838056 4.5713366e-10 0)
(0.28838056 2.6143078e-09 0)
(0.28838056 3.7069088e-09 0)
)
;

boundaryField
{
    top
    {
        type            fixedValue;
        value           uniform (0 0 0);
    }
    inlet
    {
        type            pressureNormalInletOutletVelocity;
        phi             phi;
        rho             rho;