/*--------------------------------*- C++ -*----------------------------------*\
  =========                 |
  \\      /  F ield         | OpenFOAM: The Open Source CFD Toolbox
   \\    /   O peration     | Website:  https://openfoam.org
    \\  /    A nd           | Version:  6
     \\/     M anipulation  |
\*---------------------------------------------------------------------------*/
FoamFile
{
    version     2.0;
    format      ascii;
    class       volScalarField;
    location    "19";
    object      pPrime2Mean;
}
// * * * * * * * * * * * * * * * * * * * * * * * * * * * * * * * * * * * * * //

dimensions      [0 4 -4 0 0 0 0];

internalField   nonuniform List<scalar> 
9200
(
0.57630363
0.47644972
0.39199927
0.33720784
0.2936442
0.25706526
0.22560597
0.19832268
0.17458793
0.15389558
0.13582325
0.12001423
0.1061651
0.094016801
0.083348065
0.073970769
0.065727251
0.058488468
0.052170238
0.046672148
0.46329204
0.38185753
0.31385684
0.2693761
0.23388854
0.20405362
0.17840014
0.15618256
0.13689698
0.12013224
0.10554114
0.092827246
0.081736046
0.07204869
0.063577322
0.056161605
0.049666273
0.043978202
0.039001284
0.034596881
0.35740801
0.29365292
0.24107676
0.20629879
0.17840498
0.15490501
0.13470191
0.11723791
0.10212701
0.089047313
0.07772116
0.067907007
0.059394499
0.052001007
0.045568963
0.039963563
0.035070663
0.030793551
0.027039417
0.023681736
0.26162904
0.2142553
0.17561757
0.1496618
0.12867506
0.11093605
0.09569059
0.082552322
0.071242551
0.061519056
0.053165237
0.045987589
0.039814793
0.034497075
0.029905321
0.025929686
0.022477709
0.019471138
0.016833408
0.014470695
0.1786449
0.14584483
0.11928485
0.10103354
0.08608741
0.073389542
0.062486267
0.053140414
0.045165637
0.038386706
0.032637955
0.027766463
0.023634973
0.020123594
0.017130117
0.014569065
0.012369891
0.010474125
0.0088264642
0.0073668479
0.11082574
0.090323632
0.073682314
0.061817493
0.051890995
0.043388133
0.03610361
0.029921774
0.024729934
0.020405245
0.016822233
0.013861226
0.011414287
0.0093883415
0.0077058986
0.0063040502
0.0051325395
0.0041512227
0.0033246011
0.0026188969
0.060147149
0.049265031
0.040170625
0.033215251
0.02716066
0.021900807
0.017418572
0.013687909
0.010648852
0.0082158126
0.0062930843
0.0047872866
0.0036150119
0.0027062626
0.0020048692
0.0014671172
0.0010596249
0.00075709346
0.00053940658
0.00039037918
0.028134189
0.023875967
0.019835115
0.016195648
0.012766824
0.0097127102
0.0071386428
0.0050740319
0.0034902073
0.0023243072
0.0015006374
0.00094530666
0.0005940975
0.00039527709
0.0003092897
0.00030693859
0.00036715564
0.00047506027
0.00062064048
0.00079776705
0.015817342
0.014965329
0.013446737
0.011454344
0.0093391749
0.007394725
0.0057783638
0.0045399343
0.0036616901
0.00309061
0.0027623481
0.00261583
0.0026000056
0.0026755045
0.0028135611
0.0029939084
0.0032026061
0.003430396
0.0036720429
0.0039252772
0.023679448
0.02290723
0.021402788
0.019354712
0.017210772
0.01524973
0.01360832
0.012323443
0.011370349
0.010694874
0.010235982
0.009938332
0.0097570966
0.0096583348
0.0096174324
0.0096169583
0.0096446985
0.0096922118
0.0097540146
0.0098264745
1.3990595
1.1761101
0.97163479
0.84245226
0.73997639
0.65404939
0.58012736
0.51575788
0.45942357
0.40993129
0.3663059
0.32774032
0.29355894
0.26319118
0.23615191
0.21202646
0.19045897
0.17113188
0.15374809
0.13813826
1.380924
1.1597112
0.95760967
0.82993121
0.72875709
0.64394178
0.5709818
0.50746579
0.45189442
0.40308644
0.36007627
0.32206485
0.28838341
0.25846732
0.23183664
0.20808137
0.18685018
0.16783001
0.15072177
0.13536055
1.3439501
1.1272448
0.93026544
0.805803
0.70729256
0.62472962
0.55370826
0.49189397
0.43782788
0.39035792
0.34854162
0.31159869
0.27887596
0.249822
0.22396817
0.20091436
0.18031848
0.16187632
0.14528977
0.13039586
1.2887919
1.0795013
0.89039082
0.77081465
0.67625975
0.5970266
0.52886921
0.46956146
0.41770493
0.37219287
0.33211886
0.29673172
0.26540229
0.23759919
0.21287074
0.19083135
0.17115193
0.15354099
0.13770629
0.12348425
1.216962
1.0178371
0.83913962
0.72599827
0.63658558
0.56166978
0.49722622
0.44116502
0.39216578
0.34918148
0.31135348
0.27796924
0.2484313
0.22223462
0.19894957
0.17820909
0.15969999
0.14314645
0.12826918
0.1149038
1.1305158
0.94404857
0.77800849
0.67267272
0.58944606
0.51971429
0.45973079
0.4075659
0.36199251
0.3220358
0.28689512
0.25590493
0.22850633
0.20422623
0.18266157
0.1634673
0.14634833
0.13104607
0.11730154
0.10495355
1.0319458
0.8602887
0.70876818
0.61238356
0.53621185
0.4723842
0.41748045
0.36975076
0.32807412
0.29155828
0.25946916
0.23119536
0.20622255
0.18411457
0.16449909
0.14705632
0.13151122
0.11762287
0.10515778
0.093964882
0.92408955
0.76898968
0.63340567
0.54685423
0.47840426
0.42103233
0.37168279
0.32879983
0.29137852
0.25861743
0.22985589
0.20454247
0.1822124
0.16247087
0.14498014
0.12944915
0.11562577
0.10328794
0.092231592
0.08232131
0.81002805
0.67277578
0.55405803
0.47793082
0.41764885
0.36710173
0.32362307
0.28585959
0.25292959
0.22412838
0.1988737
0.17667838
0.15713104
0.13988167
0.12463055
0.11111907
0.099122369
0.088442043
0.078910705
0.070407305
0.69297447
0.57439235
0.47294134
0.40750893
0.35560544
0.31206079
0.27460592
0.24209198
0.21376416
0.18901767
0.16735122
0.14834405
0.13163999
0.11693581
0.10397218
0.092526668
0.08240876
0.073457397
0.065557957
0.058589273
0.12161883
0.10507372
0.090971597
0.07867426
0.068119921
0.059040684
0.051207059
0.044421955
0.038524168
0.033382333
0.028889523
0.024958946
0.021519496
0.018511849
0.015885561
0.013596989
0.011607776
0.0098837817
0.0083943495
0.0071117904
0.0060110257
0.0050693322
0.0042661572
0.0035829801
0.0030032051
0.0025120701
0.002096561
0.0017453202
0.0014485448
0.0011978679
0.00098622451
0.00080770027
0.00065737346
0.0005311527
0.00042562295
0.00033790252
0.00026552133
0.00020631893
0.00015837188
0.00011994568
8.9477041e-05
6.5572334e-05
4.7013824e-05
3.2766694e-05
2.1964093e-05
1.3920594e-05
8.0519319e-06
4.013552e-06
1.3753819e-06
2.0524359e-07
0.11932041
0.1033318
0.089638859
0.077657806
0.067359875
0.058484332
0.050806113
0.044136327
0.038322498
0.033240642
0.028790075
0.024889085
0.021470351
0.018477214
0.015861081
0.013579587
0.011595266
0.0098746053
0.0083874002
0.0071062944
0.0060064557
0.005065344
0.0042625412
0.0035796225
0.0030000573
0.0025091248
0.0020938333
0.0017428336
0.0014463217
0.0011959235
0.00098456319
0.00080631536
0.00065624783
0.00053026084
0.00042493367
0.00033738186
0.00026513552
0.00020603692
0.0001581672
0.00011979735
8.9369382e-05
6.5494227e-05
4.6957532e-05
3.272685e-05
2.1936822e-05
1.3902933e-05
8.0415381e-06
4.0083042e-06
1.3735902e-06
2.049006e-07
0.11525124
0.10027217
0.087324275
0.075926179
0.066092326
0.057579252
0.050172723
0.04370029
0.038026829
0.03304288
0.028659535
0.024804278
0.021416464
0.018444049
0.015841596
0.013568901
0.011589994
0.009872414
0.0083867104
0.0071060767
0.0060060837
0.0050644841
0.0042610685
0.0035775542
0.0029974993
0.0025062303
0.0020907709
0.0017397646
0.0014433841
0.0011932236
0.00098217223
0.00080427045
0.00065455594
0.00052890465
0.00042387833
0.00033658204
0.00026454203
0.00020560251
0.0001578508
0.0001195663
8.919959e-05
6.5368986e-05
4.6865552e-05
3.2660475e-05
2.1890556e-05
1.3872502e-05
8.0233852e-06
3.9990645e-06
1.3704216e-06
2.0426612e-07
0.10961051
0.096038018
0.084151814
0.073596411
0.06441768
0.056402711
0.049361676
0.043149535
0.037658129
0.032799962
0.028502719
0.024706031
0.021357788
0.018411767
0.015826499
0.013564532
0.011591834
0.0098773425
0.008392629
0.0071116442
0.0060105195
0.0050674168
0.0042624175
0.0035774356
0.0029961497
0.0025039473
0.002087867
0.0017365343
0.0014400815
0.00119005
0.00097927187
0.00080173201
0.00065241901
0.00052716884
0.0004225135
0.00033553901
0.00026376255
0.00020502817
0.00015742949
0.00011925612
8.8969502e-05
6.5197521e-05
4.6738304e-05
3.256774e-05
2.1825327e-05
1.3829265e-05
7.9974193e-06
3.9857699e-06
1.3658471e-06
2.0333115e-07
0.10261794
0.090792399
0.080263394
0.070798388
0.062443413
0.055031918
0.048422073
0.042511648
0.0372293
0.032515949
0.028319166
0.02459205
0.021291652
0.01837802
0.015814039
0.013565366
0.011600248
0.0098893235
0.0084054482
0.0071235455
0.0060204787
0.0050749512
0.0042674318
0.0035800987
0.0029967955
0.0025029941
0.0020857571
0.0017336885
0.0014368694
0.0011867721
0.00097615231
0.00079892077
0.00064999905
0.00052516764
0.00042091623
0.00033430228
0.00026282738
0.00020433153
0.00015691315
0.00011887215
8.8681904e-05
6.4981232e-05
4.6576448e-05
3.2448897e-05
2.1741193e-05
1.3773188e-05
7.9635877e-06
3.968379e-06
1.3598627e-06
2.0208802e-07
0.094493202
0.084706237
0.075805978
0.067651592
0.060254663
0.053516202
0.047375254
0.041791259
0.036736989
0.032184652
0.028102519
0.024456983
0.021214031
0.018340042
0.015802516
0.013570553
0.011615034
0.0099086313
0.0084257779
0.0071426122
0.0060369243
0.0050881098
0.0042771387
0.0035865344
0.0030003599
0.0025042064
0.002085177
0.0017318588
0.0014342758
0.0011838194
0.0009731538
0.00079609819
0.0006474905
0.00052304052
0.00041918265
0.00033293535
0.00026177661
0.00020353685
0.00015631587
0.0001184223
8.8341122e-05
6.4722406e-05
4.6381122e-05
3.2304464e-05
2.1638313e-05
1.3704252e-05
7.921811e-06
3.9467914e-06
1.352425e-06
2.0052284e-07
0.085473877
0.077970135
0.07092715
0.064240062
0.057881019
0.051851249
0.046201645
0.040966976
0.036164657
0.031795621
0.027847285
0.024298789
0.021125082
0.018299268
0.015794022
0.013582468
0.011638628
0.0099376393
0.0084558615
0.0071709252
0.0060617604
0.0051086166
0.0042930835
0.0035981138
0.0030080468
0.002508628
0.0020870196
0.0017317971
0.0014329232
0.0011816977
0.00097067864
0.00079357683
0.0006451299
0.00052096133
0.00041743647
0.00033152316
0.00026066646
0.00020267997
0.00015565968
0.00011791965
8.7954638e-05
6.4425134e-05
4.6154438e-05
3.2135406e-05
2.1517063e-05
1.362253e-05
7.8720558e-06
3.9209511e-06
1.3435265e-06
1.9862253e-07
0.075853499
0.07080913
0.065747685
0.060560373
0.055251915
0.049958233
0.0448401
0.04
0.035492635
0.031342656
0.027555285
0.024123369
0.021032357
0.018263514
0.015795916
0.013607681
0.011676717
0.0099811831
0.0084997682
0.0072118911
0.0060978342
0.0051388514
0.0043172564
0.003616502
0.0030212479
0.0025174182
0.0020922451
0.0017342917
0.0014334516
0.0011809192
0.00096912939
0.00079166677
0.00064315033
0.00051910035
0.00041579805
0.0003301477
0.00025955052
0.00020179445
0.00015496473
0.00011737581
8.7528882e-05
6.4092831e-05
4.5898088e-05
3.1942478e-05
2.1377676e-05
1.3527998e-05
7.8142112e-06
3.8907169e-06
1.3331107e-06
1.9636813e-07
0.065910982
0.063340105
0.060162501
0.056349835
0.052082673
0.047606035
0.043123876
0.038773588
0.034638907
0.030767684
0.027185009
0.023900713
0.020913975
0.018216785
0.015796535
0.013637765
0.011723314
0.010035114
0.0085547336
0.0072637756
0.0061441632
0.0051783638
0.0043495675
0.0036418357
0.0030402253
0.0025308915
0.0021011689
0.0017396265
0.0014360952
0.0011816619
0.0009686294
0.00079044279
0.00064158719
0.00051746353
0.00041425351
0.00032878377
0.00025839938
0.00020085196
0.00015420714
0.0001167728
8.7051622e-05
6.3717895e-05
4.5607717e-05
3.1723318e-05
2.1218928e-05
1.3420021e-05
7.7479634e-06
3.8559414e-06
1.3211525e-06
1.9375672e-07
0.055978652
0.055353244
0.053671765
0.051131288
0.048006285
0.044519548
0.04084305
0.037123879
0.033473586
0.029967833
0.026655963
0.023568746
0.020722734
0.018123716
0.015769814
0.013653861
0.011765066
0.010090232
0.0086146396
0.0073227052
0.0061984715
0.0052259821
0.0043895775
0.003674134
0.003065259
0.0025494505
0.0021142247
0.0017482098
0.0014412062
0.001184209
0.00096939261
0.00079005705
0.00064054174
0.00051611327
0.00041283759
0.00032744799
0.00025721903
0.0001998533
0.00015338603
0.0001161098
8.652271e-05
6.3300699e-05
4.528388e-05
3.1478366e-05
2.1041053e-05
1.3298622e-05
7.6732186e-06
3.8165407e-06
1.3075444e-06
1.9081793e-07
0.045098124
0.045719977
0.045262487
0.043912041
0.041963801
0.039572879
0.036857636
0.033950237
0.030970544
0.028009721
0.025134516
0.022393321
0.019819108
0.017432017
0.015242266
0.013252668
0.011460547
0.0098592239
0.0084391827
0.0071889687
0.0060958873
0.0051465493
0.0043273046
0.0036245906
0.0030252155
0.0025165884
0.0020869037
0.0017252821
0.0014218707
0.0011678985
0.0009556898
0.00077863476
0.00063112318
0.00050844802
0.00040668934
0.00032259047
0.00025343695
0.00019694675
0.00015117615
0.00011444407
8.5277346e-05
6.2379302e-05
4.4613062e-05
3.1002039e-05
2.0715613e-05
1.3088644e-05
7.5504379e-06
3.7547109e-06
1.2872295e-06
1.8733731e-07
0.034925159
0.036089338
0.036342798
0.035822992
0.034765047
0.033275727
0.031427183
0.029322055
0.027065456
0.024742851
0.022421479
0.020154476
0.017981935
0.015932083
0.014023336
0.012266325
0.010665549
0.009220743
0.0079280232
0.0067808249
0.0057706585
0.0048877253
0.00412142
0.0034607465
0.0028946604
0.0024123529
0.0020034826
0.0016583592
0.0013680817
0.0011246289
0.0009209059
0.00075074474
0.00060886645
0.00049081012
0.00039283886
0.00031183439
0.00024519022
0.00019071247
0.00014653308
0.00011103897
8.2819534e-05
6.0635182e-05
4.3399706e-05
3.0178881e-05
2.0176836e-05
1.2753591e-05
7.3605357e-06
3.660334e-06
1.2565894e-06
1.8166063e-07
0.026197233
0.027667053
0.028417233
0.028540479
0.028180714
0.02741297
0.026283511
0.024866973
0.023249015
0.02150485
0.019697445
0.017879861
0.016095152
0.014376346
0.012747543
0.011225326
0.0098200259
0.0085368591
0.0073769444
0.0063381952
0.0054160727
0.0046042237
0.0038950194
0.0032800117
0.0027503188
0.002296949
0.0019110723
0.0015842396
0.001308555
0.0010767992
0.00088250542
0.00071999046
0.00058434365
0.00047138134
0.00037757535
0.00029996633
0.00023607197
0.00018379924
0.00014136558
0.0001072335
8.006075e-05
5.8669226e-05
4.2026853e-05
2.9244578e-05
1.956379e-05
1.2371622e-05
7.1437931e-06
3.5524033e-06
1.2217448e-06
1.7497347e-07
0.018850142
0.020451146
0.021504429
0.022074734
0.022227499
0.022010756
0.021455615
0.020612358
0.019544638
0.018313876
0.016975091
0.015577275
0.014162629
0.012765744
0.011413806
0.010127329
0.0089209606
0.0078042979
0.0067826943
0.005858022
0.0050293595
0.0042935996
0.0036459854
0.0030805772
0.0025906592
0.0021690886
0.0018085934
0.0015020211
0.0012425385
0.0010237834
0.00083996934
0.00068594374
0.00055720401
0.0004498771
0.00036067073
0.00028680622
0.00022594262
0.00017610104
0.00013559491
0.00010297044
7.6960235e-05
5.6452902e-05
4.0474868e-05
2.8185894e-05
1.8867808e-05
1.1937372e-05
6.8970243e-06
3.4295242e-06
1.1819559e-06
1.6738096e-07
0.012927291
0.014486544
0.015662783
0.016491838
0.016982379
0.017156633
0.017033276
0.016642975
0.016028344
0.015235315
0.014308496
0.013289917
0.012217816
0.011125422
0.010040469
0.0089852987
0.0079771914
0.0070288255
0.0061488166
0.0053422917
0.0046114521
0.003956105
0.0033741542
0.0028620474
0.0024151771
0.0020282352
0.0016955238
0.0014112204
0.0011695979
0.00096519909
0.00079296471
0.00064831701
0.0005272007
0.00042608693
0.00034194706
0.00027220541
0.00021467992
0.00016751951
0.00012914395
9.8191171e-05
7.3474845e-05
5.3955496e-05
3.8722552e-05
2.6988693e-05
1.8079777e-05
1.1445337e-05
6.6170951e-06
3.2903028e-06
1.1366605e-06
1.5893918e-07
0.0083767071
0.0097591329
0.010907087
0.011830125
0.012502011
0.012922423
0.01309732
0.013041493
0.012779484
0.01234192
0.011761813
0.01107248
0.010306029
0.0094919971
0.008656453
0.0078215922
0.0070056479
0.0062230004
0.0054844321
0.0047974803
0.0041668361
0.0035947599
0.0030814929
0.002625652
0.0022246007
0.0018747882
0.0015720558
0.0013119064
0.0010897339
0.0009010128
0.00074144408
0.00060705955
0.00049428478
0.00039996548
0.00032136292
0.00025612621
0.00020224972
0.00015802389
0.00012198548
9.2872149e-05
6.9584893e-05
5.1161156e-05
3.6757687e-05
2.5643974e-05
1.7193413e-05
1.0891409e-05
6.3015082e-06
3.1335168e-06
1.0852848e-06
1.4968022e-07
0.0050604985
0.0061839577
0.0071942286
0.0080821556
0.0088049716
0.0093462096
0.009699991
0.0098682644
0.0098610083
0.0096951458
0.0093921581
0.0089759618
0.0084713115
0.0079024554
0.0072920604
0.006660491
0.006025391
0.0054014964
0.0048006254
0.0042318046
0.0037014865
0.0032138239
0.0027709749
0.0023734212
0.0020202838
0.0017096279
0.001438747
0.0012044225
0.0010031519
0.00083134372
0.00068547424
0.00056220692
0.00045847324
0.00037151854
0.00029891704
0.00023856267
0.0001886429
0.00014760308
0.00011410735
8.7001138e-05
6.5278848e-05
4.8059707e-05
3.4571829e-05
2.4145183e-05
1.6203931e-05
1.0272423e-05
5.9483048e-06
2.9582709e-06
1.0274108e-06
1.3966858e-07
0.0027959894
0.003626707
0.0044341979
0.005198912
0.0058744287
0.0064354871
0.0068673973
0.0071624777
0.0073197491
0.0073449096
0.0072490628
0.0070470184
0.0067558537
0.006393699
0.0059786759
0.0055280409
0.0050575682
0.0045811443
0.004110544
0.0036553545
0.0032230153
0.0028189444
0.0024467224
0.0021083157
0.0018043205
0.0015342139
0.0012966014
0.0010894521
0.00091031362
0.00075650263
0.00062526436
0.00051390019
0.00041986131
0.00034081
0.00027465146
0.0002195413
0.00017387479
0.00013626437
0.00010551129
8.0576281e-05
6.0552863e-05
4.4646543e-05
3.2160469e-05
2.2488429e-05
1.510828e-05
9.5862113e-06
5.5560594e-06
2.7638401e-06
9.6262572e-07
1.289453e-07
0.0013872079
0.0019281354
0.0025062374
0.0030982193
0.0036615139
0.0041683424
0.0045993262
0.0049407164
0.0051841187
0.0053269057
0.0053717271
0.0053253901
0.0051977505
0.0050007269
0.0047473773
0.0044510645
0.0041247672
0.0037805572
0.0034292283
0.0030800668
0.0027407392
0.0024172799
0.0021141549
0.0018343826
0.0015796947
0.0013507218
0.0011471905
0.00096812216
0.00081202385
0.0006770636
0.00056122455
0.00046243334
0.00037866051
0.00030799231
0.00024867575
0.00019914011
0.00015799994
0.00012404486
9.6221534e-05
7.3612497e-05
5.5415403e-05
4.0925896e-05
2.952529e-05
2.0674024e-05
1.3906165e-05
8.832344e-06
5.1243728e-06
2.5500394e-06
8.9076386e-07
1.1758004e-07
0.000646684
0.00092497934
0.0012759876
0.0016770725
0.0020930575
0.0024979702
0.0028715923
0.0031975494
0.0034633204
0.0036608935
0.0037867828
0.0038414497
0.0038285895
0.0037544357
0.0036270527
0.0034556291
0.0032498325
0.0030192614
0.0027730091
0.0025193372
0.0022654549
0.0020173941
0.0017799661
0.0015567841
0.00135034
0.0011621172
0.00099273023
0.0008420773
0.00070949738
0.00059392189
0.00049401453
0.00040829329
0.00033523096
0.00027333221
0.00022118735
0.00017750465
0.00014112474
0.00011102124
8.629231e-05
6.6147213e-05
4.9891544e-05
3.6914012e-05
2.6676432e-05
1.8708035e-05
1.2601043e-05
8.0126593e-06
4.6541064e-06
2.3172165e-06
8.1182126e-07
1.0562633e-07
0.00040860504
0.00046437676
0.00060933861
0.00082388754
0.0010812452
0.0013596177
0.0016407059
0.0019082964
0.0021485141
0.0023506223
0.0025073477
0.0026147132
0.0026716929
0.0026798158
0.0026427047
0.0025655587
0.0024546271
0.002316719
0.0021587722
0.0019874956
0.0018090887
0.001629042
0.0014520109
0.001281757
0.001121146
0.00097219151
0.00083613267
0.00071353686
0.00060441576
0.00050834654
0.00042458998
0.00035219923
0.00029011398
0.00023723714
0.00019249262
0.00015486457
0.00012342032
9.7319863e-05
7.5815668e-05
5.8246363e-05
4.4027552e-05
3.2642585e-05
2.3635031e-05
1.6604124e-05
1.1201413e-05
7.1321724e-06
4.1479821e-06
2.0666578e-06
7.2618371e-07
9.3177829e-08
0.00053412916
0.00041174712
0.00038171383
0.00042830718
0.00053268491
0.00067808021
0.00084961507
0.0010330889
0.0012153225
0.0013849958
0.0015331266
0.0016531673
0.001740942
0.0017945094
0.001813936
0.0018009821
0.0017587348
0.0016912273
0.0016030718
0.0014991245
0.0013841971
0.0012628227
0.0011390812
0.0010164813
0.00089789623
0.00078554645
0.00068102069
0.00058532747
0.00049896828
0.00042202358
0.00035424409
0.00029514029
0.00024406472
0.00020028274
0.00016302944
0.00013155187
0.00010513708
8.3128107e-05
6.4930339e-05
5.0011215e-05
3.7896071e-05
2.8162648e-05
2.043606e-05
1.4385539e-05
9.7221428e-06
6.1998641e-06
3.6109804e-06
1.8007051e-06
6.3460123e-07
8.0341077e-08
0.00091151856
0.00065386672
0.00048333835
0.00038798634
0.0003556948
0.00037457516
0.00043363531
0.00052161839
0.0006273083
0.00074030509
0.00085153621
0.00095348567
0.001040308
0.0011078776
0.0011537514
0.0011770369
0.001178188
0.0011587568
0.001121124
0.0010682283
0.00100331
0.00092968398
0.00085054833
0.00076883655
0.00068711209
0.00060750519
0.00053168658
0.00046087388
0.00039586308
0.00033707871
0.00028463542
0.00023840452
0.00019807974
0.00016323751
0.00013338851
0.00010801871
8.661926e-05
6.8706129e-05
5.3831007e-05
4.1585624e-05
3.160172e-05
2.3548818e-05
1.7131488e-05
1.2087416e-05
8.1860862e-06
5.22979e-06
3.0510496e-06
1.5231906e-06
5.3840249e-07
6.7286529e-08
0.0014535808
0.0010988379
0.00082141111
0.00061255897
0.00046541497
0.00037227974
0.00032582264
0.00031793604
0.00033993796
0.00038321954
0.00043970604
0.0005021188
0.00056416904
0.00062071374
0.00066784467
0.00070289538
0.00072437548
0.00073184932
0.000725775
0.00070731865
0.00067815902
0.00064029609
0.00059587561
0.00054703731
0.00049579288
0.00044393519
0.0003929796
0.00034413421
0.00029829625
0.00025606889
0.00021779368
0.00018359251
0.0001534142
0.00012708085
0.00010433037
8.4852658e-05
6.8318044e-05
5.4397762e-05
4.2777188e-05
3.31631e-05
2.5286619e-05
1.8903523e-05
1.3793435e-05
9.7590459e-06
6.6256331e-06
4.2420513e-06
2.4796355e-06
1.2396579e-06
4.3952029e-07
5.4237948e-08
0.0020939715
0.0016742394
0.0013201018
0.0010253214
0.00078683929
0.00060025084
0.00046129709
0.0003647542
0.0003045233
0.00027412733
0.00026707856
0.00027711012
0.00029837809
0.00032565433
0.00035447913
0.00038125418
0.00040327588
0.00041871667
0.00042656192
0.00042651139
0.00041885595
0.00040434101
0.00038402763
0.00035916059
0.00033105085
0.00030097765
0.00027011273
0.00023946832
0.00020986704
0.00018193207
0.00015609355
0.00013260734
0.00011158187
9.3008802e-05
7.6794018e-05
6.278617e-05
5.0800748e-05
4.0638835e-05
3.2100415e-05
2.4992804e-05
1.9135243e-05
1.4360848e-05
1.0517131e-05
7.4660864e-06
5.0842966e-06
3.2638865e-06
1.9123765e-06
9.5776476e-07
3.4067666e-07
4.1510953e-08
0.002783313
0.0023244286
0.0019192113
0.0015632765
0.0012561303
0.0009957753
0.00078030988
0.00060688766
0.00047171512
0.0003704069
0.00029824985
0.00025037423
0.00022192174
0.00020822635
0.00020497982
0.0002083616
0.00021512836
0.0002226637
0.00022898937
0.00023274097
0.0002331136
0.00022978499
0.00022282439
0.00021259524
0.00019965933
0.00018468818
0.00016838685
0.00015143265
0.00013443067
0.00011788535
0.00010218731
8.7612426e-05
7.4330745e-05
6.2421585e-05
5.1892092e-05
4.2696366e-05
3.4753146e-05
2.7960663e-05
2.2208043e-05
1.7383194e-05
1.3377673e-05
1.0089259e-05
7.4231017e-06
5.2922309e-06
3.6179158e-06
2.3304679e-06
1.3695637e-06
6.8749944e-07
2.4542363e-07
2.951033e-08
0.0034856413
0.0030076415
0.0025721621
0.0021761435
0.001820676
0.0015054006
0.0012300852
0.0009936834
0.00079427133
0.00062928681
0.00049570099
0.0003901243
0.00030892327
0.00024836263
0.00020475056
0.00017456848
0.00015457944
0.00014191197
0.00013411703
0.00012919617
0.00012560242
0.00012221673
0.00011830512
0.00011346194
0.00010754514
0.00010060934
9.2841602e-05
8.4504003e-05
7.5885653e-05
6.7265957e-05
5.8889148e-05
5.0949709e-05
4.3586851e-05
3.6886308e-05
3.0887e-05
2.5590466e-05
2.097109e-05
1.6985665e-05
1.358135e-05
1.0701577e-05
8.2899261e-06
6.2923091e-06
4.6579896e-06
3.3399906e-06
2.2953202e-06
1.4854143e-06
8.764988e-07
4.4139543e-07
1.5824975e-07
1.8749456e-08
0.0041753777
0.0036932584
0.0032437828
0.0028248237
0.0024383332
0.0020849827
0.0017656247
0.0014804704
0.0012289938
0.0010100849
0.00082214968
0.00066316046
0.00053072132
0.00042216363
0.00033465477
0.00026530538
0.00021127019
0.00016983821
0.00013850843
0.00011504701
9.7524096e-05
8.4330256e-05
7.417395e-05
6.6062861e-05
5.9272646e-05
5.3307238e-05
4.7854893e-05
4.2743815e-05
3.790071e-05
3.3314588e-05
2.9007517e-05
2.5012769e-05
2.136033e-05
1.8068779e-05
1.5142392e-05
1.2571865e-05
1.0337241e-05
8.4116883e-06
6.7651806e-06
5.3674211e-06
4.1897515e-06
3.2060787e-06
2.393059e-06
1.7298741e-06
1.1979096e-06
7.80595e-07
4.6340506e-07
2.3449363e-07
8.4548075e-08
9.8413106e-09
0.0048348596
0.0043594127
0.0039081739
0.0034796742
0.003076227
0.0026990857
0.0023497325
0.0020291808
0.0017378689
0.0014757548
0.0012423656
0.0010368073
0.00085778975
0.0007036781
0.00057256278
0.00046233476
0.00037076413
0.00029557822
0.0002345357
0.00018549206
0.0001464534
0.00011561634
9.1393457e-05
7.2424234e-05
5.757317e-05
4.5916978e-05
3.6723675e-05
2.9426475e-05
2.359535e-05
1.8908798e-05
1.5127874e-05
1.207387e-05
9.6103993e-06
7.6300424e-06
6.0451639e-06
4.7822258e-06
3.778648e-06
2.9813379e-06
2.3460404e-06
1.8369066e-06
1.4258922e-06
1.0918404e-06
8.1929706e-07
5.9720451e-07
4.1767057e-07
2.7496121e-07
1.6480326e-07
8.4054383e-08
3.0533825e-08
3.4892624e-09
0.0054523772
0.0049909882
0.0045467963
0.0041188078
0.0037093722
0.0033200143
0.002952516
0.0026083416
0.002288535
0.0019937765
0.0017244011
0.0014803831
0.0012613321
0.0010665114
0.00089487386
0.00074510506
0.00061567538
0.00050489667
0.00041098247
0.00033210698
0.00026646032
0.00021229683
0.0001679747
0.00013198556
0.00010297368
7.9745011e-05
6.1267436e-05
4.6663559e-05
3.5198166e-05
2.6262268e-05
1.9355636e-05
1.4069463e-05
1.0070326e-05
7.0862581e-06
4.8952427e-06
3.3161181e-06
2.2015892e-06
1.4328907e-06
9.1559966e-07
5.7615126e-07
3.5872257e-07
2.2229312e-07
1.3782782e-07
8.5627644e-08
5.293848e-08
3.1925192e-08
1.801948e-08
8.8264998e-09
2.9777451e-09
4.5226239e-10
0.0060206335
0.0055779853
0.0051468309
0.0047265353
0.0043192883
0.0039266832
0.0035505789
0.0031926379
0.0028542354
0.002536492
0.0022402753
0.0019661716
0.0017144649
0.0014851337
0.0012778601
0.0010920478
0.00092684891
0.00078119744
0.00065385065
0.00054343339
0.0004484845
0.00036750194
0.00029898506
0.00024147156
0.00019356822
0.00015397424
0.00012149726
9.5062192e-05
7.3713805e-05
5.6614209e-05
4.3036466e-05
3.2355733e-05
2.4039097e-05
1.7635114e-05
1.2763755e-05
9.1072041e-06
6.4017094e-06
4.4304279e-06
3.0171728e-06
2.0208236e-06
1.3302657e-06
8.5970934e-07
5.4434089e-07
3.3632893e-07
2.0121811e-07
1.1484098e-07
6.0582842e-08
2.7759098e-08
8.7552591e-09
1.4912627e-09
0.0065355296
0.0061141959
0.0056997995
0.0052919912
0.0048926957
0.0045034532
0.0041260602
0.0037622084
0.0034134081
0.0030810077
0.0027661864
0.002469922
0.0021929634
0.0019358132
0.0016987212
0.0014816837
0.00128445
0.0011065368
0.00094724977
0.00080571121
0.00068089264
0.00057164974
0.00047675892
0.00039495279
0.00032495362
0.0002655029
0.00021538631
0.00017345342
0.00013863208
0.0001099376
8.6477445e-05
6.745205e-05
5.21527e-05
3.995729e-05
3.0324704e-05
2.2788486e-05
1.6950189e-05
1.2472769e-05
9.0741119e-06
6.5208112e-06
4.6222169e-06
3.2247389e-06
2.2064625e-06
1.4721113e-06
9.484257e-07
5.8014277e-07
3.2622323e-07
1.580032e-07
5.4129502e-08
7.2851408e-09
0.0069952142
0.006596144
0.0062004271
0.0058079586
0.0054203516
0.0050390277
0.0046656436
0.0043018161
0.0039490614
0.0036088062
0.0032823767
0.0029709694
0.0026756207
0.0023971857
0.0021363215
0.0018934753
0.0016688777
0.001462542
0.00127427
0.0011036639
0.00095014456
0.00081297323
0.00069127812
0.0005840826
0.00049033474
0.00040893619
0.00033876966
0.00027872354
0.00022771327
0.00018469878
0.00014869807
0.00011879682
9.4154603e-05
7.400796e-05
5.7671007e-05
4.4534046e-05
3.4060698e-05
2.5783953e-05
1.9301467e-05
1.427039e-05
1.0401881e-05
7.4555009e-06
5.2336017e-06
3.5758816e-06
2.3541699e-06
1.4678589e-06
8.3929013e-07
4.1210749e-07
1.4374335e-07
1.8315193e-08
0.0073992877
0.0070221867
0.006645662
0.0062698278
0.0058959782
0.0055253888
0.0051595414
0.0047999228
0.004447977
0.0041051119
0.0037726882
0.0034519944
0.0031442189
0.0028504278
0.0025715448
0.0023083338
0.0020613841
0.0018311001
0.0016176961
0.0014211956
0.0012414363
0.0010780803
0.00093062866
0.00079843981
0.00068075133
0.00057670352
0.00048536404
0.0004057523
0.00033686294
0.00027768728
0.00022723234
0.000184537
0.00014868509
0.0001188154
9.4128922e-05
7.3893361e-05
5.7445451e-05
4.4191295e-05
3.3605103e-05
2.5226655e-05
1.8657763e-05
1.3557982e-05
9.6398417e-06
6.6638002e-06
4.4331836e-06
2.7895222e-06
1.6075874e-06
7.9439113e-07
2.7931041e-07
3.4716463e-08
0.0077482201
0.0073918467
0.0070339274
0.0066747847
0.0063154072
0.0059569207
0.0056006262
0.0052478584
0.0048999498
0.0045582338
0.0042240351
0.0038986498
0.0035833217
0.0032792218
0.0029874283
0.0027089075
0.0024444955
0.0021948829
0.0019606019
0.0017420181
0.0015393252
0.0013525451
0.0011815316
0.0010259795
0.0008854366
0.00075931991
0.00064693398
0.0005474915
0.00046013467
0.00038395679
0.00031802321
0.00026139078
0.00021312567
0.00017231869
0.00013809825
0.00010964079
8.6178595e-05
6.7005287e-05
5.1479117e-05
3.9024303e-05
2.913067e-05
2.1351912e-05
1.5302694e-05
1.0655052e-05
7.1341265e-06
4.5142527e-06
2.6140416e-06
1.2967191e-06
4.5807989e-07
5.6107857e-08
0.0080426419
0.0077050135
0.0073642427
0.0070208554
0.0066755604
0.0063293454
0.0059833426
0.0056387352
0.0052967313
0.0049585645
0.0046254861
0.00429875
0.0039795932
0.0036692189
0.003368778
0.0030793509
0.0028019282
0.002537394
0.0022865091
0.0020498978
0.001828036
0.0016212443
0.0014296832
0.001253353
0.0010920982
0.00094561425
0.00081345972
0.00069507005
0.00058977474
0.00049681589
0.00041536807
0.00034455827
0.00028348565
0.00023124016
0.00018691965
0.00014964503
0.00011857332
9.2908173e-05
7.1908147e-05
5.4892573e-05
4.1245222e-05
3.0415982e-05
2.1920825e-05
1.5340353e-05
1.0317325e-05
6.5539381e-06
3.8077977e-06
1.8939107e-06
6.7116159e-07
8.1394698e-08
0.0082831675
0.0079617048
0.0076359173
0.0073065391
0.0069740286
0.006639255
0.0063032044
0.0059669237
0.0056315023
0.0052980704
0.0049677929
0.004641858
0.0043214625
0.0040077982
0.0037020348
0.0034053049
0.0031186847
0.0028431783
0.0025796984
0.0023290518
0.0020919236
0.001868865
0.0016602831
0.0014664343
0.0012874209
0.0011231916
0.00097354549
0.00083813987
0.00071650171
0.00060804164
0.00051207062
0.00042781828
0.00035445238
0.0002910986
0.00023685998
0.00019083541
0.0001521367
0.00011990357
9.3316578e-05
7.1607507e-05
5.4067355e-05
4.0051858e-05
2.8984824e-05
2.0359507e-05
1.3738346e-05
8.7521782e-06
5.097421e-06
2.5403016e-06
9.0227732e-07
1.086597e-07
0.008468967
0.008160557
0.00784697
0.0075291554
0.0072073524
0.006882337
0.0065549778
0.0062262099
0.0058970214
0.0055684505
0.0052415801