/*--------------------------------*- C++ -*----------------------------------*\
| =========                 |                                                 |
| \\      /  F ield         | OpenFOAM: The Open Source CFD Toolbox           |
|  \\    /   O peration     | Version:  4.1                                   |
|   \\  /    A nd           | Web:      www.OpenFOAM.org                      |
|    \\/     M anipulation  |                                                 |
\*---------------------------------------------------------------------------*/
FoamFile
{
    version     2.0;
    format      ascii;
    class       volScalarField;
    location    "2";
    object      p;
}
// * * * * * * * * * * * * * * * * * * * * * * * * * * * * * * * * * * * * * //

dimensions      [0 2 -2 0 0 0 0];

internalField   nonuniform List<scalar> 
1000
(
1.5222321
1.5056839
1.4899943
1.4745882
1.4592496
1.4439434
1.4286563
1.4133755
1.3980957
1.3828158
1.3675361
1.3522565
1.3369769
1.3216973
1.3064177
1.2911381
1.2758584
1.2605788
1.2452991
1.2300194
1.2147397
1.19946
1.1841803
1.1689005
1.1536208
1.138341
1.1230613
1.1077816
1.0925018
1.0772221
1.0619423
1.0466626
1.0313828
1.0161031
1.0008233
0.9855436
0.97026385
0.95498411
0.93970436
0.92442462
0.90914487
0.89386512
0.87858538
0.86330563
0.84802589
0.83274614
0.8174664
0.80218665
0.7869069
0.77162716
0.75634741
0.74106767
0.72578792
0.71050818
0.69522843
0.67994869
0.66466894
0.64938919
0.63410945
0.6188297
0.60354996
0.58827021
0.57299047
0.55771072
0.54243097
0.52715123
0.51187148
0.49659174
0.48131199
0.46603225
0.4507525
0.43547276
0.42019301
0.40491326
0.38963352
0.37435377
0.35907403
0.34379428
0.32851454
0.31323479
0.29795505
0.2826753
0.26739555
0.25211581
0.23683606
0.22155632
0.20627657
0.19099683
0.17571708
0.16043733
0.14515759
0.12987784
0.1145981
0.099318352
0.084038608
0.068758866
0.053479126
0.038199392
0.02291965
0.0076398862
1.5218853
1.5053584
1.4899344
1.4746278
1.4592798
1.4439562
1.4286632
1.4133802
1.3980985
1.3828174
1.367537
1.352257
1.3369772
1.3216975
1.3064178
1.2911381
1.2758585
1.2605788
1.2452991
1.2300194
1.2147397
1.19946
1.1841803
1.1689005
1.1536208
1.138341
1.1230613
1.1077816
1.0925018
1.0772221
1.0619423
1.0466626
1.0313828
1.0161031
1.0008233
0.9855436
0.97026385
0.95498411
0.93970436
0.92442462
0.90914487
0.89386512
0.87858538
0.86330563
0.84802589
0.83274614
0.8174664
0.80218665
0.7869069
0.77162716
0.75634741
0.74106767
0.72578792
0.71050818
0.69522843
0.67994869
0.66466894
0.64938919
0.63410945
0.6188297
0.60354996
0.58827021
0.57299047
0.55771072
0.54243097
0.52715123
0.51187148
0.49659174
0.48131199
0.46603225
0.4507525
0.43547276
0.42019301
0.40491326
0.38963352
0.37435377
0.35907403
0.34379428
0.32851454
0.31323479
0.29795505
0.2826753
0.26739555
0.25211581
0.23683606
0.22155632
0.20627657
0.19099683
0.17571708
0.16043733
0.14515759
0.12987784
0.1145981
0.099318351
0.084038607
0.068758863
0.05347912
0.038199385
0.022919645
0.0076398838
1.5214643
1.5049191
1.4897913
1.4746262
1.4592907
1.4439595
1.428666
1.4133834
1.3981008
1.3828188
1.3675379
1.3522576
1.3369775
1.3216977
1.3064179
1.2911382
1.2758585
1.2605788
1.2452991
1.2300194
1.2147397
1.19946
1.1841803
1.1689005
1.1536208
1.1383411
1.1230613
1.1077816
1.0925018
1.0772221
1.0619423
1.0466626
1.0313828
1.0161031
1.0008233
0.9855436
0.97026385
0.95498411
0.93970436
0.92442462
0.90914487
0.89386512
0.87858538
0.86330563
0.84802589
0.83274614
0.8174664
0.80218665
0.7869069
0.77162716
0.75634741
0.74106767
0.72578792
0.71050818
0.69522843
0.67994869
0.66466894
0.64938919
0.63410945
0.6188297
0.60354996
0.58827021
0.57299047
0.55771072
0.54243097
0.52715123
0.51187148
0.49659174
0.48131199
0.46603225
0.4507525
0.43547276
0.42019301
0.40491326
0.38963352
0.37435377
0.35907403
0.34379428
0.32851454
0.31323479
0.29795505
0.2826753
0.26739555
0.25211581
0.23683606
0.22155632
0.20627657
0.19099683
0.17571708
0.16043733
0.14515759
0.12987784
0.1145981
0.099318351
0.084038607
0.068758863
0.053479118
0.038199383
0.022919642
0.0076398793
1.5211714
1.5045945
1.4896672
1.4746127
1.4592944
1.4439607
1.4286676
1.4133856
1.3981025
1.3828199
1.3675386
1.352258
1.3369778
1.3216978
1.306418
1.2911383
1.2758586
1.2605789
1.2452992
1.2300194
1.2147397
1.19946
1.1841803
1.1689005
1.1536208
1.1383411
1.1230613
1.1077816
1.0925018
1.0772221
1.0619423
1.0466626
1.0313828
1.0161031
1.0008233
0.9855436
0.97026385
0.95498411
0.93970436
0.92442462
0.90914487
0.89386512
0.87858538
0.86330563
0.84802589
0.83274614
0.8174664
0.80218665
0.7869069
0.77162716
0.75634741
0.74106767
0.72578792
0.71050818
0.69522843
0.67994869
0.66466894
0.64938919
0.63410945
0.6188297
0.60354996
0.58827021
0.57299047
0.55771072
0.54243097
0.52715123
0.51187148
0.49659174
0.48131199
0.46603225
0.4507525
0.43547276
0.42019301
0.40491326
0.38963352
0.37435377
0.35907403
0.34379428
0.32851454
0.31323479
0.29795505
0.2826753
0.26739555
0.25211581
0.23683606
0.22155632
0.20627657
0.19099683
0.17571708
0.16043733
0.14515759
0.12987784
0.1145981
0.099318351
0.084038607
0.068758864
0.053479117
0.038199383
0.02291964
0.0076398772
1.521036
1.5044361
1.4896004
1.4746016
1.4592946
1.4439607
1.4286682
1.4133868
1.3981035
1.3828205
1.367539
1.3522583
1.336978
1.321698
1.3064181
1.2911383
1.2758586
1.2605789
1.2452992
1.2300195
1.2147397
1.19946
1.1841803
1.1689005
1.1536208
1.1383411
1.1230613
1.1077816
1.0925018
1.0772221
1.0619423
1.0466626
1.0313828
1.0161031
1.0008233
0.9855436
0.97026385
0.95498411
0.93970436
0.92442462
0.90914487
0.89386512
0.87858538
0.86330563
0.84802589
0.83274614
0.8174664
0.80218665
0.7869069
0.77162716
0.75634741
0.74106767
0.72578792
0.71050818
0.69522843
0.67994869
0.66466894
0.64938919
0.63410945
0.6188297
0.60354996
0.58827021
0.57299047
0.55771072
0.54243097
0.52715123
0.51187148
0.49659174
0.48131199
0.46603225
0.4507525
0.43547276
0.42019301
0.40491326
0.38963352
0.37435377
0.35907403
0.34379428
0.32851454
0.31323479
0.29795505
0.2826753
0.26739555
0.25211581
0.23683606
0.22155632
0.20627657
0.19099683
0.17571708
0.16043733
0.14515759
0.12987784
0.1145981
0.099318351
0.084038607
0.068758864
0.053479118
0.038199383
0.02291964
0.0076398762
1.521036
1.5044361
1.4896004
1.4746016
1.4592946
1.4439607
1.4286681
1.4133867
1.3981034
1.3828205
1.3675389
1.3522583
1.336978
1.3216979
1.3064181
1.2911383
1.2758586
1.2605789
1.2452992
1.2300195
1.2147397
1.19946
1.1841803
1.1689005
1.1536208
1.1383411
1.1230613
1.1077816
1.0925018
1.0772221
1.0619423
1.0466626
1.0313828
1.0161031
1.0008233
0.9855436
0.97026385
0.95498411
0.93970436
0.92442462
0.90914487
0.89386512
0.87858538
0.86330563
0.84802589
0.83274614
0.8174664
0.80218665
0.7869069
0.77162716
0.75634741
0.74106767
0.72578792
0.71050818
0.69522843
0.67994869
0.66466894
0.64938919
0.63410945
0.6188297
0.60354996
0.58827021
0.57299047
0.55771072
0.54243097
0.52715123
0.51187148
0.49659174
0.48131199
0.46603225
0.4507525
0.43547276
0.42019301
0.40491326
0.38963352
0.37435377
0.35907403
0.34379428
0.32851454
0.31323479
0.29795505
0.2826753
0.26739555
0.25211581
0.23683606
0.22155632
0.20627657
0.19099683
0.17571708
0.16043733
0.14515759
0.12987784
0.1145981
0.099318351
0.084038607
0.068758865
0.053479118
0.038199383
0.02291964
0.0076398763
1.5211714
1.5045946
1.4896673
1.4746127
1.4592943
1.4439605
1.4286674
1.4133854
1.3981024
1.3828198
1.3675385
1.3522579
1.3369778
1.3216978
1.306418
1.2911383
1.2758586
1.2605789
1.2452992
1.2300194
1.2147397
1.19946
1.1841803
1.1689005
1.1536208
1.1383411
1.1230613
1.1077816
1.0925018
1.0772221
1.0619423
1.0466626
1.0313828
1.0161031
1.0008233
0.9855436
0.97026385
0.95498411
0.93970436
0.92442462
0.90914487
0.89386512
0.87858538
0.86330563
0.84802589
0.83274614
0.8174664
0.80218665
0.7869069
0.77162716
0.75634741
0.74106767
0.72578792
0.71050818
0.69522843
0.67994869
0.66466894
0.64938919
0.63410945
0.6188297
0.60354996
0.58827021
0.57299047
0.55771072
0.54243097
0.52715123
0.51187148
0.49659174
0.48131199
0.46603225
0.4507525
0.43547276
0.42019301
0.40491326
0.38963352
0.37435377
0.35907403
0.34379428
0.32851454
0.31323479
0.29795505
0.2826753
0.26739555
0.25211581
0.23683606
0.22155632
0.20627657
0.19099683
0.17571708
0.16043733
0.14515759
0.12987784
0.1145981
0.099318352
0.084038608
0.068758865
0.053479119
0.038199384
0.022919641
0.0076398776
1.5214643
1.504919
1.4897911
1.4746261
1.4592905
1.4439593
1.4286657
1.4133831
1.3981006
1.3828186
1.3675378
1.3522575
1.3369774
1.3216976
1.3064179
1.2911382
1.2758585
1.2605788
1.2452991
1.2300194
1.2147397
1.19946
1.1841803
1.1689005
1.1536208
1.1383411
1.1230613
1.1077816
1.0925018
1.0772221
1.0619423
1.0466626
1.0313828
1.0161031
1.0008233
0.9855436
0.97026385
0.95498411
0.93970436
0.92442462
0.90914487
0.89386512
0.87858538
0.86330563
0.84802589
0.83274614
0.8174664
0.80218665
0.7869069
0.77162716
0.75634741
0.74106767
0.72578792
0.71050818
0.69522843
0.67994869
0.66466894
0.64938919
0.63410945
0.6188297
0.60354996
0.58827021
0.57299047
0.55771072
0.54243097
0.52715123
0.51187148
0.49659174
0.48131199
0.46603225
0.4507525
0.43547276
0.42019301
0.40491326
0.38963352
0.37435377
0.35907403
0.34379428
0.32851454
0.31323479
0.29795505
0.2826753
0.26739555
0.25211581
0.23683606
0.22155632
0.20627657
0.19099683
0.17571708
0.16043733
0.14515759
0.12987784
0.1145981
0.099318352
0.084038608
0.068758866
0.053479121
0.038199386
0.022919644
0.0076398799
1.5218852
1.505358
1.489934
1.4746275
1.4592796
1.443956
1.428663
1.4133801
1.3980984
1.3828173
1.3675369
1.3522569
1.3369771
1.3216974
1.3064178
1.2911381
1.2758585
1.2605788
1.2452991
1.2300194
1.2147397
1.19946
1.1841803
1.1689005
1.1536208
1.1383411
1.1230613
1.1077816
1.0925018
1.0772221
1.0619423
1.0466626
1.0313828
1.0161031
1.0008233
0.9855436
0.97026385
0.95498411
0.93970436
0.92442462
0.90914487
0.89386512
0.87858538
0.86330563
0.84802589
0.83274614
0.8174664
0.80218665
0.7869069
0.77162716
0.75634741
0.74106767
0.72578792
0.71050818
0.69522843
0.67994869
0.66466894
0.64938919
0.63410945
0.6188297
0.60354996
0.58827021
0.57299047
0.55771072
0.54243097
0.52715123
0.51187148
0.49659174
0.48131199
0.46603225
0.4507525
0.43547276
0.42019301
0.40491326
0.38963352
0.37435377
0.35907403
0.34379428
0.32851454
0.31323479
0.29795505
0.2826753
0.26739555
0.25211581
0.23683606
0.22155632
0.20627657
0.19099683
0.17571708
0.16043733
0.14515759
0.12987784
0.1145981
0.099318352
0.084038609
0.068758867
0.053479124
0.038199388
0.022919647
0.0076398843
1.5222319
1.5056835
1.489994
1.474588
1.4592496
1.4439435
1.4286564
1.4133756
1.3980957
1.3828158
1.3675361
1.3522564
1.3369768
1.3216972
1.3064177
1.291138
1.2758584
1.2605788
1.2452991
1.2300194
1.2147397
1.19946
1.1841803
1.1689005
1.1536208
1.1383411
1.1230613
1.1077816
1.0925018
1.0772221
1.0619423
1.0466626
1.0313828
1.0161031
1.0008233
0.9855436
0.97026385
0.95498411
0.93970436
0.92442462
0.90914487
0.89386512
0.87858538
0.86330563
0.84802589
0.83274614
0.8174664
0.80218665
0.7869069
0.77162716
0.75634741
0.74106767
0.72578792
0.71050818
0.69522843
0.67994869
0.66466894
0.64938919
0.63410945
0.6188297
0.60354996
0.58827021
0.57299047
0.55771072
0.54243097
0.52715123
0.51187148
0.49659174
0.48131199
0.46603225
0.4507525
0.43547276
0.42019301
0.40491326
0.38963352
0.37435377
0.35907403
0.34379428
0.32851454
0.31323479
0.29795505
0.2826753
0.26739555
0.25211581
0.23683606
0.22155632
0.20627657
0.19099683
0.17571708
0.16043733
0.14515759
0.12987784
0.1145981
0.099318353
0.084038611
0.06875887
0.053479129
0.038199395
0.022919651
0.0076398866
)
;

boundaryField
{
    top
    {
        type            zeroGradient;
    }
    inlet
    {
        type            fixedValue;
        value           uniform 1.53103;
    }
    outlet
    {
        type            fixedValue;
        value           uniform 0;
    }
    bottom
    {
        type            zeroGradient;
    }
    back
    {
        type            empty;
    }
    front
    {
        type            empty;
    }
}


// ************************************************************************* //
