/*--------------------------------*- C++ -*----------------------------------*\
| =========                 |                                                 |
| \\      /  F ield         | OpenFOAM: The Open Source CFD Toolbox           |
|  \\    /   O peration     | Version:  4.1                                   |
|   \\  /    A nd           | Web:      www.OpenFOAM.org                      |
|    \\/     M anipulation  |                                                 |
\*---------------------------------------------------------------------------*/
FoamFile
{
    version     2.0;
    format      ascii;
    class       surfaceScalarField;
    location    "2";
    object      phi;
}
// * * * * * * * * * * * * * * * * * * * * * * * * * * * * * * * * * * * * * //

dimensions      [0 3 -1 0 0 0 0];

internalField   nonuniform List<scalar> 
1890
(
0.0011303381
6.7465274e-06
0.0011167078
1.3631134e-05
0.0011072895
9.4187016e-06
0.0011030011
4.2882617e-06
0.0011012634
1.7373473e-06
0.001100521
7.4205783e-07
0.0011002045
3.1621224e-07
0.0011000746
1.2958321e-07
0.0011000144
6.0051022e-08
0.0010999806
3.3641709e-08
0.001099961
1.9561601e-08
0.0010999502
1.0814688e-08
0.0010999446
5.6480342e-09
0.0010999419
2.7520205e-09
0.0010999407
1.2156478e-09
0.0010999403
4.6651832e-10
0.0010999402
1.3646204e-10
0.0010999402
1.0251412e-11
0.0010999402
-2.8845423e-11
0.0010999403
-3.5100108e-11
0.0010999404
-2.7086292e-11
0.0010999404
-1.6767579e-11
0.0010999404
-9.825687e-12
0.0010999404
-4.3330296e-12
0.0010999404
-1.6168737e-12
0.0010999404
5.4253333e-13
0.0010999404
9.8790962e-13
0.0010999405
1.6308876e-12
0.0010999405
1.2705059e-12
0.0010999405
1.5368447e-12
0.0010999405
9.5311352e-13
0.0010999405
1.1128365e-12
0.0010999405
6.1123268e-13
0.0010999405
7.7156685e-13
0.0010999405
3.8672854e-13
0.0010999405
4.8752578e-13
0.0010999405
1.9770799e-13
0.0010999405
3.6465641e-13
0.0010999405
7.2196275e-14
0.0010999405
2.4486443e-13
0.0010999405
-1.7450775e-14
0.0010999405
2.2735717e-13
0.0010999405
-6.3751468e-14
0.0010999405
1.6707067e-13
0.0010999405
-9.5144506e-14
0.0010999405
1.8090586e-13
0.0010999405
-1.0924976e-13
0.0010999405
1.3815593e-13
0.0010999405
-1.2058205e-13
0.0010999405
1.6271276e-13
0.0010999405
-1.2426679e-13
0.0010999405
1.2668e-13
0.0010999405
-1.3004392e-13
0.0010999405
1.5531559e-13
0.0010999405
-1.3036754e-13
0.0010999405
1.22017e-13
0.0010999405
-1.3369497e-13
0.0010999405
1.5232635e-13
0.0010999405
-1.3273776e-13
0.0010999405
1.2023174e-13
0.0010999405
-1.3514257e-13
0.0010999405
1.5114742e-13
0.0010999405
-1.3364315e-13
0.0010999405
1.195525e-13
0.0010999405
-1.3566395e-13
0.0010999405
1.5078409e-13
0.0010999405
-1.3384882e-13
0.0010999405
1.1951678e-13
0.0010999405
-1.3552678e-13
0.0010999405
1.5111883e-13
0.0010999405
-1.3335581e-13
0.0010999405
1.2007501e-13
0.0010999405
-1.3495897e-13
0.0010999405
1.514577e-13
0.0010999405
-1.3339755e-13
0.0010999405
1.1941948e-13
0.0010999405
-1.362933e-13
0.0010999405
1.4975056e-13
0.0010999405
-1.3446124e-13
0.0010999405
1.206092e-13
0.0010999405
-1.3016642e-13
0.0010999405
1.619885e-13
0.0010999405
-1.1212815e-13
0.0010999405
1.5134619e-13
0.0010999405
-7.1099522e-14
0.0010999405
2.3199234e-13
0.0010999405
2.877326e-14
0.0010999405
3.1160027e-13
0.0010999405
1.1536522e-13
0.0010999405
3.2964304e-13
0.0010999405
-2.1279117e-13
0.0010999405
-8.7505052e-13
0.0010999405
-2.8279067e-12
0.0010999405
-8.4414104e-12
0.0010999405
-2.7387441e-11
0.0010999406
-6.5098739e-11
0.0010999407
-1.454606e-10
0.0010999412
-4.8640923e-10
0.0010999418
-6.1513415e-10
1.9719913e-11
0.0022157987
7.6861719e-06
0.0022112588
1.8171879e-05
0.002206044
1.4633802e-05
0.0022024897
7.8424262e-06
0.002200628
3.5986817e-06
0.0021997454
1.6243328e-06
0.0021993411
7.2022048e-07
0.0021991552
3.1522799e-07
0.0021990621
1.5301954e-07
0.0021990088
8.6862692e-08
0.002198976
5.2249289e-08
0.0021989561
3.0809381e-08
0.0021989443
1.7470265e-08
0.0021989376
9.4531205e-09
0.002198934
4.8500971e-09
0.0021989322
2.3536637e-09
0.0021989313
1.0772313e-09
0.0021989309
4.5766788e-10
0.0021989307
1.7400096e-10
0.0021989306
5.1941683e-11
0.0021989306
6.6101307e-12
0.0021989307
-7.0954849e-12
0.0021989307
-8.0841209e-12
0.0021989307
-6.2372459e-12
0.0021989307
-3.320168e-12
0.0021989307
-1.4793365e-12
0.0021989307
1.4754216e-13
0.0021989307
6.0291574e-13
0.0021989307
1.2317643e-12
0.0021989307
1.0575606e-12
0.0021989307
1.2689761e-12
0.0021989307
8.8786023e-13
0.0021989307
9.9724067e-13
0.0021989307
6.6492824e-13
0.0021989307
7.2590845e-13
0.0021989307
4.4681657e-13
0.0021989307
4.8779303e-13
0.0021989307
3.2030694e-13
0.0021989307
3.2541561e-13
0.0021989307
1.7275926e-13
0.0021989307
2.103113e-13
0.0021989307
1.2985065e-13
0.0021989307
1.4115704e-13
0.0021989307
5.9261906e-14
0.0021989307
8.7414398e-14
0.0021989307
5.899763e-14
0.0021989307
6.0614264e-14
0.0021989307
1.2128522e-14
0.0021989307
4.0318013e-14
0.0021989307
2.6130104e-14
0.0021989307
3.3696873e-14
0.0021989307
-1.0506652e-14
0.0021989307
2.2302548e-14
0.0021989307
1.1485317e-14
0.0021989307
2.1945763e-14
0.0021989307
-2.0186135e-14
0.0021989307
1.4471404e-14
0.0021989307
5.5367072e-15
0.0021989307
1.7063357e-14
0.0021989307
-2.4172237e-14
0.0021989307
1.1376875e-14
0.0021989307
3.154631e-15
0.0021989307
1.5106613e-14
0.0021989307
-2.570302e-14
0.0021989307
1.025035e-14
0.0021989307
2.3533312e-15
0.0021989307
1.4597605e-14
0.0021989307
-2.5898744e-14
0.0021989307
1.0379872e-14
0.0021989307
2.7993329e-15
0.0021989307
1.534194e-14
0.0021989307
-2.5024997e-14
0.0021989307
1.102965e-14
0.0021989307
2.868859e-15
0.0021989307
1.4155126e-14
0.0021989307
-2.7946003e-14
0.0021989307
5.9403011e-15
0.0021989307
-4.5676432e-15
0.0021989307
6.5660509e-15
0.0021989307
-3.2799611e-14
0.0021989307
7.4337595e-15
0.0021989307
6.5990825e-15
0.0021989307
3.2871478e-14
0.0021989307
5.6728813e-15
0.0021989307
8.6728771e-14
0.0021989307
9.1990124e-14
0.0021989307
1.5370315e-13
0.0021989307
6.6868622e-14
0.0021989307
-1.062662e-13
0.0021989307
-9.0263285e-13
0.0021989307
-2.3300732e-12
0.0021989307
-6.6612396e-12
0.0021989307
-1.4605606e-11
0.0021989308
-3.3812591e-11
0.0021989308
-8.0269444e-11
0.0021989309
-1.7332478e-10
0.0021989311
-3.3894973e-10
0.0021989315
-8.8804972e-10
0.0021989319
-1.0331963e-09
-7.7934748e-12
0.0026726048
5.1904205e-06
0.0026768248
1.3952778e-05
0.0026789463
1.2512639e-05
0.0026793839
7.4046561e-06
0.0026793261
3.656164e-06
0.0026792382
1.7119841e-06
0.0026791804
7.7782079e-07
0.0026791453
3.5006115e-07
0.0026791254
1.7285486e-07
0.0026791132
9.9019004e-08
0.0026791045
6.0887263e-08
0.0026790982
3.7159989e-08
0.0026790938
2.1908377e-08
0.0026790909
1.2373096e-08
0.0026790892
6.6687616e-09
0.0026790881
3.433097e-09
0.0026790876
1.6896683e-09
0.0026790873
7.9282042e-10
0.0026790872
3.5022206e-10
0.0026790871
1.4235741e-10
0.0026790871
4.9862599e-11
0.0026790871
1.2500834e-11
0.0026790871
-9.7486605e-13
0.0026790871
-4.0248182e-12
0.0026790871
-4.1434448e-12
0.0026790871
-2.7142273e-12
0.0026790871
-1.6972359e-12
0.0026790872
-5.864529e-13
0.0026790872
-1.6103259e-13
0.0026790872
3.352137e-13
0.0026790872
3.8333498e-13
0.0026790872
5.6219809e-13
0.0026790872
4.946499e-13
0.0026790872
5.2072617e-13
0.0026790872
4.856354e-13
0.0026790872
3.7844332e-13
0.0026790872
4.1395761e-13
0.0026790872
2.5342314e-13
0.0026790872
3.3164264e-13
0.0026790872
1.2774319e-13
0.0026790872
2.5417233e-13
0.0026790872
7.2721585e-14
0.0026790872
1.9983295e-13
0.0026790872
1.8401571e-14
0.0026790872
1.5323054e-13
0.0026790872
-4.9931802e-15
0.0026790872
1.2937659e-13
0.0026790872
-3.4443904e-14
0.0026790872
1.0630447e-13
0.0026790872
-4.1005769e-14
0.0026790872
9.8837579e-14
0.0026790872
-5.9619314e-14
0.0026790872
8.5959292e-14
0.0026790872
-5.8267269e-14
0.0026790872
8.5322937e-14
0.0026790872
-7.0770217e-14
0.0026790872
7.7209817e-14
0.0026790872
-6.5657859e-14
0.0026790872
7.9622796e-14
0.0026790872
-7.5312569e-14
0.0026790872
7.3525717e-14
0.0026790872
-6.869994e-14
0.0026790872
7.7305832e-14
0.0026790872
-7.7129766e-14
0.0026790872
7.2111614e-14
0.0026790872
-6.9766081e-14
0.0026790872
7.6554937e-14
0.0026790872
-7.7598527e-14
0.0026790872
7.1919016e-14
0.0026790872
-6.9702645e-14
0.0026790872
7.675189e-14
0.0026790872
-7.7508846e-14
0.0026790872
7.1492957e-14
0.0026790872
-7.1252176e-14
0.0026790872
7.3204432e-14
0.0026790872
-8.4090571e-14
0.0026790872
6.0412796e-14
0.0026790872
-8.6334829e-14
0.0026790872
5.4034697e-14
0.0026790872
-1.0338322e-13
0.0026790872
4.5503931e-14
0.0026790872
-9.3649338e-14
0.0026790872
6.0478153e-14
0.0026790872
-8.0564557e-14
0.0026790872
9.3943689e-14
0.0026790872
-3.3074504e-14
0.0026790872
1.1874154e-13
0.0026790872
-1.4590157e-13
0.0026790872
-5.5478236e-13
0.0026790872
-1.4206885e-12
0.0026790872
-4.2467883e-12
0.0026790872
-9.4596793e-12
0.0026790872
-2.0929691e-11
0.0026790872
-4.4098255e-11
0.0026790872
-9.7004206e-11
0.0026790872
-1.9982782e-10
0.0026790873
-3.6094952e-10
0.0026790872
-8.2381151e-10
0.0026790871
-9.8736468e-10
-8.1673683e-11
0.0028441427
2.3863389e-06
0.0028510771
7.019263e-06
0.0028568518
6.7382334e-06
0.0028600262
4.2301249e-06
0.0028615007
2.1813836e-06
0.0028621665
1.0459721e-06
0.0028624615
4.82555e-07
0.002862591
2.2038116e-07
0.0028626542
1.0962572e-07
0.0028626902
6.3011794e-08
0.0028627119
3.917461e-08
0.0028627248
2.4341509e-08
0.0028627321
1.4642306e-08
0.0028627361
8.4431815e-09
0.0028627382
4.6522386e-09
0.0028627393
2.4501521e-09
0.0028627398
1.2365069e-09
0.00286274
5.9468602e-10
0.0028627402
2.7138287e-10
0.0028627402
1.1303947e-10
0.0028627403
4.1774961e-11
0.0028627403
9.7514239e-12
0.0028627403
-9.3693597e-13
0.0028627403
-5.2753181e-12
0.0028627404
-4.6794032e-12
0.0028627404
-4.6182387e-12
0.0028627404
-2.6538755e-12
0.0028627404
-2.4102581e-12
0.0028627404
-1.0399624e-12
0.0028627404
-1.02164e-12
0.0028627404
-1.566186e-13
0.0028627404
-3.9955877e-13
0.0028627404
1.9714455e-13
0.0028627404
-1.4261196e-13
0.0028627404
4.0331838e-13
0.0028627404
-7.7918218e-14
0.0028627404
4.1680101e-13
0.0028627404
-9.5034127e-14
0.0028627404
4.343449e-13
0.0028627404
-1.3698835e-13
0.0028627404
3.6797268e-13
0.0028627404
-1.6884815e-13
0.0028627404
3.7211612e-13
0.0028627404
-2.0055283e-13
0.0028627404
3.1280407e-13
0.0028627404
-2.221613e-13
0.0028627404
3.299897e-13
0.0028627404
-2.4011891e-13
0.0028627404
2.8216436e-13
0.0028627404
-2.499501e-13
0.0028627404
3.084842e-13
0.0028627404
-2.5859656e-13
0.0028627404
2.6658152e-13
0.0028627404
-2.6267556e-13
0.0028627404
2.9787964e-13
0.0028627404
-2.6731614e-13
0.0028627404
2.5932398e-13
0.0028627404
-2.6833456e-13
0.0028627404
2.9328548e-13
0.0028627404
-2.7108916e-13
0.0028627404
2.5628513e-13
0.0028627404
-2.7066575e-13
0.0028627404
2.9141679e-13
0.0028627404
-2.7258161e-13
0.0028627404
2.550951e-13
0.0028627404
-2.7160209e-13
0.0028627404
2.9064674e-13
0.0028627404
-2.732514e-13
0.0028627404
2.5448254e-13
0.0028627404
-2.7221125e-13
0.0028627404
2.8994264e-13
0.0028627404
-2.7436715e-13
0.0028627404
2.525231e-13
0.0028627404
-2.7569913e-13
0.0028627404
2.8386578e-13
0.0028627404
-2.846811e-13
0.0028627404
2.3643753e-13
0.0028627404
-2.9881873e-13
0.0028627404
2.5431751e-13
0.0028627404
-3.1973935e-13
0.0028627404
1.9781672e-13
0.0028627404
-3.2941216e-13
0.0028627404
2.3360356e-13
0.0028627404
-3.189157e-13
0.0028627404
2.2763131e-13
0.0028627404
-2.7240133e-13
0.0028627404
3.0527542e-13
0.0028627404
-3.1444931e-13
0.0028627404
-6.2394005e-14
0.0028627404
-1.3785183e-12
0.0028627404
-2.2336266e-12
0.0028627404
-6.8823483e-12
0.0028627404
-1.316704e-11
0.0028627404
-2.954229e-11
0.0028627403
-6.1082395e-11
0.0028627403
-1.2602807e-10
0.0028627401
-2.1948825e-10
0.0028627398
-4.7025548e-10
0.0028627394
-5.6974483e-10
-6.8614821e-11
0.0028984971
-1.4026968e-10
0.0029055173
-5.4647223e-11
0.0029122561
-2.2197191e-10
0.0029164866
-4.7281631e-10
0.0029186682
-5.2809548e-10
0.0029197144
-4.6531143e-10
0.0029201972
-3.2693e-10
0.0029204177
-2.1202904e-10
0.0029205274
-1.420862e-10
0.0029205905
-1.0600172e-10
0.0029206298
-8.4316003e-11
0.0029206543
-7.1501095e-11
0.0029206691
-6.1742754e-11
0.0029206777
-5.3698404e-11
0.0029206825
-4.7543342e-11
0.0029206851
-4.0824734e-11
0.0029206865
-3.5819789e-11
0.0029206872
-2.951588e-11
0.0029206875
-2.5470876e-11
0.0029206877
-2.0543943e-11
0.0029206878
-1.7515134e-11
0.0029206879
-1.3764713e-11
0.0029206879
-1.1602723e-11
0.0029206879
-8.6468985e-12
0.0029206879
-7.4770518e-12
0.0029206879
-5.2917337e-12
0.0029206879
-4.5806914e-12
0.002920688
-2.9351565e-12
0.002920688
-2.7430553e-12
0.002920688
-1.3906708e-12
0.002920688
-1.5318155e-12
0.002920688
-5.3193719e-13
0.002920688
-9.3110923e-13
0.002920688
-6.6342581e-15
0.002920688
-5.2258431e-13
0.002920688
2.036903e-13
0.002920688
-4.1428615e-13
0.002920688
3.3063351e-13
0.002920688
-2.9852273e-13
0.002920688
3.3650969e-13
0.002920688
-3.3510868e-13
0.002920688
3.7095256e-13
0.002920688
-2.8119421e-13
0.002920688
3.4179627e-13
0.002920688
-3.3777151e-13
0.002920688
3.6340503e-13
0.002920688
-2.8925985e-13
0.002920688
3.321214e-13
0.002920688
-3.4683271e-13
0.002920688
3.5439087e-13
0.002920688
-2.9608777e-13
0.002920688
3.2513598e-13
0.002920688
-3.5304972e-13
0.002920688
3.4892323e-13
0.002920688
-3.0043169e-13
0.002920688
3.2125263e-13
0.002920688
-3.5640917e-13
0.002920688
3.4621054e-13
0.002920688
-3.0250885e-13
0.002920688
3.1952694e-13
0.002920688
-3.5783826e-13
0.002920688
3.4511005e-13
0.002920688
-3.0332583e-13
0.002920688
3.1887162e-13
0.002920688
-3.5841527e-13
0.002920688
3.4455949e-13
0.002920688
-3.0391558e-13
0.002920688
3.1812461e-13
0.002920688
-3.5942601e-13
0.002920688
3.4323619e-13
0.002920688
-3.0565327e-13
0.002920688
3.1577287e-13
0.002920688
-3.6291423e-13
0.002920688
3.3806301e-13
0.002920688
-3.1351213e-13
0.002920688
3.0450117e-13
0.002920688
-3.8224477e-13
0.002920688
3.1128773e-13
0.002920688
-3.5148496e-13
0.002920688
2.5887055e-13
0.002920688
-4.3697505e-13
0.002920688
2.6199094e-13
0.002920688
-3.9394959e-13
0.002920688
2.4303776e-13
0.002920688
-4.1557822e-13
0.002920688
3.3748668e-13
0.002920688
-2.2550971e-13
0.002920688
5.4438405e-13
0.002920688
6.8085807e-14
0.002920688
9.7919842e-13
0.002920688
6.4915736e-13
0.002920688
1.8693275e-12
0.0029206879
1.9440629e-12
0.0029206879
3.6717486e-12
0.0029206878
3.4993408e-12
0.0029206877
4.4422271e-12
0.0029206875
3.9794352e-12
0.002920687
3.2415343e-12
0.0029206864
1.4801459e-12
6.9219285e-13
0.0028984974
-2.3862795e-06
0.0029055174
-7.0192103e-06
0.0029122564
-6.7387452e-06
0.0029164869
-4.2310145e-06
0.0029186685
-2.1822272e-06
0.0029197145
-1.0466407e-06
0.0029201971
-4.8304745e-07
0.0029204176
-2.2073023e-07
0.0029205273
-1.098705e-07
0.0029205905
-6.3192205e-08
0.0029206298
-3.9316863e-08
0.0029206543
-2.4460791e-08
0.0029206691
-1.4745023e-08
0.0029206777
-8.5326347e-09
0.0029206825
-4.7311515e-09
0.0029206851
-2.5188559e-09
0.0029206865
-1.2964271e-09
0.0029206872
-6.454271e-10
0.0029206875
-3.1479482e-10
0.0029206877
-1.4909066e-10
0.0029206878
-7.2114965e-11
0.0029206878
-3.4300861e-11
0.0029206879
-1.9304224e-11
0.0029206879
-1.0759762e-11
0.0029206879
-8.4413273e-12
0.0029206879
-5.7993156e-12
0.0029206879
-5.226905e-12
0.002920688
-3.709158e-12
0.002920688
-3.4556346e-12
0.002920688
-2.1678779e-12
0.002920688
-2.1590672e-12
0.002920688
-1.2028815e-12
0.002920688
-1.3541556e-12
0.002920688
-4.2495556e-13
0.002920688
-8.2587602e-13
0.002920688
-1.2069819e-13
0.002920688
-5.9516344e-13
0.002920688
1.7447102e-13
0.002920688
-4.4398563e-13
0.002920688
1.8968971e-13
0.002920688
-4.081986e-13
0.002920688
3.2518595e-13
0.002920688
-3.5280856e-13
0.002920688
2.6324817e-13
0.002920688
-3.6182224e-13
0.002920688
3.5948056e-13
0.002920688
-3.2800122e-13
0.002920688
2.8141505e-13
0.002920688
-3.4839679e-13
0.002920688
3.6919524e-13
0.002920688
-3.2071106e-13
0.002920688
2.866028e-13
0.002920688
-3.4475195e-13
0.002920688
3.7180553e-13
0.002920688
-3.1871023e-13
0.002920688
2.8794682e-13
0.002920688
-3.43814e-13
0.002920688
3.7256054e-13
0.002920688
-3.1804627e-13
0.002920688
2.8846984e-13
0.002920688
-3.4338405e-13
0.002920688
3.7296509e-13
0.002920688
-3.1765591e-13
0.002920688
2.8880062e-13
0.002920688
-3.4316256e-13
0.002920688
3.7301719e-13
0.002920688
-3.1788247e-13
0.002920688
2.8816978e-13
0.002920688
-3.4427759e-13
0.002920688
3.7135775e-13
0.002920688
-3.20309e-13
0.002920688
2.8498779e-13
0.002920688
-3.483438e-13
0.002920688
3.6603305e-13
0.002920688
-3.2800559e-13
0.002920688
2.7341496e-13
0.002920688
-3.6566946e-13
0.002920688
3.3964931e-13
0.002920688
-3.6543699e-13
0.002920688
2.2003195e-13
0.002920688
-4.2550273e-13
0.002920688
2.7634378e-13
0.002920688
-4.1793083e-13
0.002920688
1.9472139e-13
0.002920688
-4.0940368e-13
0.002920688
3.7194565e-13
0.002920688
-1.5823631e-13
0.002920688
7.3897685e-13
0.002920688
8.3826109e-13
0.002920688
2.8214425e-12
0.002920688
4.0058028e-12
0.002920688
9.8692864e-12
0.0029206879
1.7251283e-11
0.0029206879
3.5766398e-11
0.0029206878
6.7741569e-11
0.0029206877
1.3418294e-10
0.0029206875
2.2713853e-10
0.002920687
4.7549934e-10
0.0029206864
5.725113e-10
6.9931277e-11
0.002844144
-5.1904648e-06
0.0028510786
-1.395283e-05
0.002856853
-1.2512664e-05
0.0028600269
-7.4047317e-06
0.0028615009
-3.6563732e-06
0.0028621664
-1.7122437e-06
0.0028624613
-7.7805859e-07
0.0028625908
-3.5024005e-07
0.002862654
-1.7299242e-07
0.00286269
-9.9123592e-08
0.0028627118
-6.0969372e-08
0.0028627247
-3.7225951e-08
0.002862732
-2.196237e-08
0.0028627361
-1.2420822e-08
0.0028627382
-6.7094374e-09
0.0028627392
-3.4710957e-09
0.0028627398
-1.7217803e-09
0.00286274
-8.2310264e-10
0.0028627402
-3.7509863e-10
0.0028627402
-1.6591502e-10
0.0028627403
-6.850843e-11
0.0028627403
-3.0070716e-11
0.0028627403
-1.2261097e-11
0.0028627403
-8.4293271e-12
0.0028627404
-5.1587657e-12
0.0028627404
-5.8473637e-12
0.0028627404
-4.2182587e-12
0.0028627404
-4.8413122e-12
0.0028627404
-3.043826e-12
0.0028627404
-3.5139219e-12
0.0028627404
-1.8630987e-12
0.0028627404
-2.4466891e-12
0.0028627404
-8.9104384e-13
0.0028627404
-1.5811711e-12
0.0028627404
-2.4522026e-13
0.0028627404
-1.1963834e-12
0.0028627404
1.8720064e-13
0.0028627404
-8.8711174e-13
0.0028627404
3.5758867e-13
0.0028627404
-8.2407185e-13
0.0028627404
5.0700351e-13
0.0028627404
-6.8092887e-13
0.0028627404
5.2444851e-13
0.0028627404
-7.1511673e-13
0.0028627404
5.9580528e-13
0.0028627404
-6.1807785e-13
0.0028627404
5.7334863e-13
0.0028627404
-6.7888016e-13
0.0028627404
6.2441914e-13
0.0028627404
-5.962661e-13
0.0028627404
5.9039266e-13
0.0028627404
-6.6601816e-13
0.0028627404
6.3453672e-13
0.0028627404
-5.8827434e-13
0.0028627404
5.9665681e-13
0.0028627404
-6.6118479e-13
0.0028627404
6.3842331e-13
0.0028627404
-5.8508755e-13
0.0028627404
5.9925171e-13
0.0028627404
-6.5908604e-13
0.0028627404
6.4016739e-13
0.0028627404
-5.8359849e-13
0.0028627404
6.0050937e-13
0.0028627404
-6.5804968e-13
0.0028627404
6.4097157e-13
0.0028627404
-5.8308054e-13
0.0028627404
6.0064032e-13
0.0028627404
-6.5842945e-13
0.0028627404
6.4001463e-13
0.0028627404
-5.847867e-13
0.0028627404
5.9827621e-13
0.0028627404
-6.6149895e-13
0.0028627404
6.3633829e-13
0.0028627404
-5.8945278e-13
0.0028627404
5.9220606e-13
0.0028627404
-6.7008784e-13
0.0028627404
6.2233686e-13
0.0028627404
-6.1127574e-13
0.0028627404
5.5811135e-13
0.0028627404
-7.1500898e-13
0.0028627404
5.6392585e-13
0.0028627404
-6.7175607e-13
0.0028627404
5.0482612e-13
0.0028627404
-7.471564e-13
0.0028627404
5.7306458e-13
0.0028627404
-5.9401701e-13
0.0028627404
7.4429079e-13
0.0028627404
-1.3437193e-13
0.0028627404
1.9020656e-12
0.0028627404
2.2221684e-12
0.0028627404
6.6601314e-12
0.0028627404
1.0760789e-11
0.0028627404
2.5097673e-11
0.0028627404
4.7385085e-11
0.0028627403
1.0319552e-10
0.0028627403
2.0540583e-10
0.0028627401
3.6702514e-10
0.0028627398
8.2773382e-10
0.0028627394
9.8920012e-10
8.2415553e-11
0.0026726054
-7.6861612e-06
0.0026768253
-1.8171786e-05
0.0026789467
-1.4633507e-05
0.002679384
-7.8420476e-06
0.002679326
-3.59844e-06
0.0026792378
-1.6242953e-06
0.0026791799
-7.2032849e-07
0.0026791449
-3.1537832e-07
0.002679125
-1.5315391e-07
0.0026791129
-8.6963651e-08
0.0026791043
-5.2319403e-08
0.002679098
-3.085606e-08
0.0026790937
-1.7500093e-08
0.0026790908
-9.4730313e-09
0.0026790891
-4.8634878e-09
0.0026790881
-2.3643742e-09
0.0026790876
-1.0856478e-09
0.0026790873
-4.6584857e-10
0.0026790871
-1.8109081e-10
0.0026790871
-5.9346969e-11
0.0026790871
-1.3393009e-11
0.0026790871
3.7699351e-13
0.0026790871
2.4008188e-12
0.0026790871
5.4624428e-13
0.0026790871
-1.5463243e-12
0.0026790871
-3.0337855e-12
0.0026790871
-3.6690418e-12
0.0026790872
-3.6713955e-12
0.0026790872
-3.3095252e-12
0.0026790872
-2.9023247e-12
0.0026790872
-2.4000834e-12
0.0026790872
-1.9061187e-12
0.0026790872
-1.4257655e-12
0.0026790872
-1.1370787e-12
0.0026790872
-8.5600799e-13
0.0026790872
-6.3652884e-13
0.0026790872
-3.9563696e-13
0.0026790872
-3.7707427e-13
0.0026790872
-2.5004192e-13
0.0026790872
-2.1712085e-13
0.0026790872
-6.9598987e-14
0.0026790872
-1.4520344e-13
0.0026790872
-8.0051965e-14
0.0026790872
-9.728071e-14
0.0026790872
2.703063e-14
0.0026790872
-7.8479904e-14
0.0026790872
-3.0072308e-14
0.0026790872
-5.799605e-14
0.0026790872
6.0550716e-14
0.0026790872
-5.6167594e-14
0.0026790872
-1.2200615e-14
0.0026790872
-4.4422883e-14
0.0026790872
7.0958353e-14
0.0026790872
-4.7736792e-14
0.0026790872
-4.8428524e-15
0.0026790872
-3.9264802e-14
0.0026790872
7.50662e-14
0.0026790872
-4.4187778e-14
0.0026790872
-1.7806446e-15
0.0026790872
-3.694915e-14
0.0026790872
7.6934547e-14
0.0026790872
-4.2530573e-14
0.0026790872
-3.1569177e-16
0.0026790872
-3.5824003e-14
0.0026790872
7.7810546e-14
0.0026790872
-4.1867875e-14
0.0026790872
3.6350583e-17
0.0026790872
-3.5893642e-14
0.0026790872
7.7340192e-14
0.0026790872
-4.2893815e-14
0.0026790872
-1.6561592e-15
0.0026790872
-3.7836647e-14
0.0026790872
7.5168097e-14
0.0026790872
-4.5679979e-14
0.0026790872
-6.2839272e-15
0.0026790872
-4.3216321e-14
0.0026790872
6.6180541e-14
0.0026790872
-6.1180176e-14
0.0026790872
-3.0416489e-14
0.0026790872
-7.6305899e-14
0.0026790872
1.9574139e-14
0.0026790872
-1.0140251e-13
0.0026790872
-7.2270672e-14
0.0026790872
-9.6485389e-14
0.0026790872
2.1505349e-14
0.0026790872
-6.0280712e-14
0.0026790872
7.5336473e-14
0.0026790872
2.6026038e-13
0.0026790872
7.846654e-13
0.0026790872
1.7564519e-12
0.0026790872
3.7236055e-12
0.0026790872
7.8184246e-12
0.0026790872
1.6639696e-11
0.0026790872
3.5486938e-11
0.0026790872
8.334541e-11
0.0026790872
1.7725033e-10
0.0026790873
3.4251803e-10
0.0026790872
8.9003136e-10
0.0026790871
1.0340526e-09
8.1771158e-12
0.0022157981
-6.7463815e-06
0.0022112579
-1.3630875e-05
0.0022060432
-9.4183184e-06
0.0022024891
-4.2879854e-06
0.0022006276
-1.7372113e-06
0.0021997451
-7.4211436e-07
0.0021993408
-3.1640334e-07
0.0021991549
-1.2981444e-07
0.0021990619
-6.0241077e-08
0.0021990086
-3.3776274e-08
0.0021989759
-1.9647889e-08
0.0021989559
-1.0865262e-08
0.0021989442
-5.6730121e-09
0.0021989375
-2.7592972e-09
0.002198934
-1.213249e-09
0.0021989321
-4.57934e-10
0.0021989312
-1.2614974e-10
0.0021989309
1.162713e-12
0.0021989307
3.9150454e-11
0.0021989306
4.46363e-11
0.0021989306
3.3219852e-11
0.0021989306
2.2792722e-11
0.0021989307
1.3707068e-11
0.0021989307
7.7501784e-12
0.0021989307
2.6881373e-12
0.0021989307
9.9010479e-13
0.0021989307
-1.0614964e-12
0.0021989307
-7.6101205e-13
0.0021989307
-1.7586397e-12
0.0021989307
-9.4295642e-13
0.0021989307
-1.5256957e-12
0.0021989307
-6.0717508e-13
0.0021989307
-1.1310172e-12
0.0021989307
-2.5657382e-13
0.0021989307
-8.3929772e-13
0.0021989307
5.4350754e-14
0.0021989307
-6.3014963e-13
0.0021989307
1.744597e-13
0.0021989307
-5.3171166e-13
0.0021989307
3.1481762e-13
0.0021989307
-4.6084661e-13
0.0021989307
3.202268e-13
0.0021989307
-4.4162779e-13
0.0021989307
3.8779848e-13
0.0021989307
-4.0969115e-13
0.0021989307
3.5801759e-13
0.0021989307
-4.1563363e-13
0.0021989307
4.0734514e-13
0.0021989307
-3.9553971e-13
0.0021989307
3.6829394e-13
0.0021989307
-4.0818263e-13
0.0021989307
4.1295319e-13
0.0021989307
-3.9113892e-13
0.0021989307
3.7176914e-13
0.0021989307
-4.0548371e-13
0.0021989307
4.1512265e-13
0.0021989307
-3.893072e-13
0.0021989307
3.7330626e-13
0.0021989307
-4.0422244e-13
0.0021989307
4.1617467e-13
0.0021989307
-3.8838842e-13
0.0021989307
3.74093e-13
0.0021989307
-4.035424e-13
0.0021989307
4.1677047e-13
0.0021989307
-3.8786274e-13
0.0021989307
3.7453952e-13
0.0021989307
-4.0320721e-13
0.0021989307
4.1697723e-13
0.0021989307
-3.8788203e-13
0.0021989307
3.743186e-13
0.0021989307
-4.0370858e-13
0.0021989307
4.1622842e-13
0.0021989307
-3.8899026e-13
0.0021989307
3.7281813e-13
0.0021989307
-4.0565415e-13
0.0021989307
4.134227e-13
0.0021989307
-3.9316399e-13
0.0021989307
3.6613552e-13
0.0021989307
-4.1493499e-13
0.0021989307
4.006626e-13
0.0021989307
-4.0676978e-13
0.0021989307
3.5492124e-13
0.0021989307
-4.1843122e-13
0.0021989307
4.0895526e-13
0.0021989307
-3.9094891e-13
0.0021989307
3.8793872e-13
0.0021989307
-3.7497873e-13
0.0021989307
4.6270469e-13
0.0021989307
-2.9801276e-13
0.0021989307
5.9300717e-13
0.0021989307
2.0872149e-13
0.0021989307
1.80191e-12
0.0021989307
2.5715164e-12
0.0021989308
8.9249843e-12
0.0021989308
2.7907868e-11
0.0021989309
6.7112355e-11
0.0021989311
1.4671016e-10
0.0021989315
4.8641986e-10
0.0021989319
6.1487413e-10
-1.9739432e-11
0.0011303381
0.0011167075
0.0011072892
0.0011030011
0.0011012637
0.0011005214
0.0011002048
0.0011000748
0.0011000145
0.0010999807
0.0010999611
0.0010999502
0.0010999446
0.0010999418
0.0010999407
0.0010999402
0.0010999401
0.0010999402
0.0010999402
0.0010999403
0.0010999404
0.0010999404
0.0010999404
0.0010999404
0.0010999404
0.0010999404
0.0010999405
0.0010999405
0.0010999405
0.0010999405
0.0010999405
0.0010999405
0.0010999405
0.0010999405
0.0010999405
0.0010999405
0.0010999405
0.0010999405
0.0010999405
0.0010999405
0.0010999405
0.0010999405
0.0010999405
0.0010999405
0.0010999405
0.0010999405
0.0010999405
0.0010999405
0.0010999405
0.0010999405
0.0010999405
0.0010999405
0.0010999405
0.0010999405
0.0010999405
0.0010999405
0.0010999405
0.0010999405
0.0010999405
0.0010999405
0.0010999405
0.0010999405
0.0010999405
0.0010999405
0.0010999405
0.0010999405
0.0010999405
0.0010999405
0.0010999405
0.0010999405
0.0010999405
0.0010999405
0.0010999405
0.0010999405
0.0010999405
0.0010999405
0.0010999405
0.0010999405
0.0010999405
0.0010999405
0.0010999405
0.0010999405
0.0010999405
0.0010999405
0.0010999405
0.0010999405
0.0010999405
0.0010999405
0.0010999405
0.0010999405
0.0010999405
0.0010999405
0.0010999405
0.0010999405
0.0010999405
0.0010999406
0.0010999407
0.0010999412
0.0010999418
)
;

boundaryField
{
    top
    {
        type            calculated;
        value           uniform 0;
    }
    inlet
    {
        type            calculated;
        value           nonuniform List<scalar> 10(-0.0011370839 -0.0022167376 -0.0026701083 -0.0028413378 -0.0028961098 -0.0028961104 -0.0028413391 -0.0026701089 -0.0022167371 -0.0011370841);
    }
    outlet
    {
        type            calculated;
        value           nonuniform List<scalar> 10(0.0010999418 0.002198932 0.0026790872 0.0028627393 0.0029206864 0.0029206864 0.0028627393 0.0026790872 0.002198932 0.0010999418);
    }
    bottom
    {
        type            calculated;
        value           uniform 0;
    }
    back
    {
        type            empty;
        value           nonuniform 0();
    }
    front
    {
        type            empty;
        value           nonuniform 0();
    }
}


// ************************************************************************* //
