/*--------------------------------*- C++ -*----------------------------------*\
| =========                 |                                                 |
| \\      /  F ield         | OpenFOAM: The Open Source CFD Toolbox           |
|  \\    /   O peration     | Version:  4.1                                   |
|   \\  /    A nd           | Web:      www.OpenFOAM.org                      |
|    \\/     M anipulation  |                                                 |
\*---------------------------------------------------------------------------*/
FoamFile
{
    version     2.0;
    format      ascii;
    class       volVectorField;
    location    "2";
    object      U;
}
// * * * * * * * * * * * * * * * * * * * * * * * * * * * * * * * * * * * * * //

dimensions      [0 1 -1 0 0 0 0];

internalField   nonuniform List<vector> 
1000
(
(0.11754536 0.00042449067 0)
(0.11668252 0.00079322404 0)
(0.11514565 0.00052392135 0)
(0.11435704 0.00021968556 0)
(0.11408779 7.9418202e-05 0)
(0.11398518 3.2211565e-05 0)
(0.11393523 1.3636363e-05 0)
(0.11391353 5.4533129e-06 0)
(0.1139049 2.4722674e-06 0)
(0.11390054 1.3573963e-06 0)
(0.11389791 7.3447508e-07 0)
(0.11389642 3.5494513e-07 0)
(0.11389563 1.5143866e-07 0)
(0.11389523 5.1753339e-08 0)
(0.11389506 7.4400034e-09 0)
(0.11389499 -8.4012003e-09 0)
(0.11389497 -1.1457477e-08 0)
(0.11389497 -9.84351e-09 0)
(0.11389497 -7.1056568e-09 0)
(0.11389498 -4.4597169e-09 0)
(0.11389499 -2.6085467e-09 0)
(0.11389499 -1.3915675e-09 0)
(0.11389499 -6.806179e-10 0)
(0.113895 -2.4651369e-10 0)
(0.113895 -4.9327116e-11 0)
(0.113895 7.4739338e-11 0)
(0.113895 9.2619221e-11 0)
(0.113895 1.2229858e-10 0)
(0.113895 9.5169357e-11 0)
(0.113895 1.0336236e-10 0)
(0.113895 6.5995219e-11 0)
(0.113895 7.1408275e-11 0)
(0.113895 3.6010701e-11 0)
(0.113895 4.853694e-11 0)
(0.113895 1.3247658e-11 0)
(0.113895 3.137133e-11 0)
(0.113895 8.3168435e-13 0)
(0.113895 2.4320702e-11 0)
(0.113895 -5.7226688e-12 0)
(0.113895 1.7939099e-11 0)
(0.113895 -8.7640275e-12 0)
(0.113895 1.7141079e-11 0)
(0.113895 -1.0511258e-11 0)
(0.113895 1.4301461e-11 0)
(0.113895 -1.1486419e-11 0)
(0.113895 1.5128326e-11 0)
(0.113895 -1.2143313e-11 0)
(0.113895 1.3125134e-11 0)
(0.113895 -1.2470689e-11 0)
(0.113895 1.4387801e-11 0)
(0.113895 -1.2703125e-11 0)
(0.113895 1.2662987e-11 0)
(0.113895 -1.2836549e-11 0)
(0.113895 1.4088442e-11 0)
(0.113895 -1.2941636e-11 0)
(0.113895 1.2459398e-11 0)
(0.113895 -1.3008579e-11 0)
(0.113895 1.3955848e-11 0)
(0.113895 -1.3050058e-11 0)
(0.113895 1.2369005e-11 0)
(0.113895 -1.3081451e-11 0)
(0.113895 1.39011e-11 0)
(0.113895 -1.3093644e-11 0)
(0.113895 1.233353e-11 0)
(0.113895 -1.3108299e-11 0)
(0.113895 1.388406e-11 0)
(0.113895 -1.3101927e-11 0)
(0.113895 1.2334716e-11 0)
(0.113895 -1.3097273e-11 0)
(0.113895 1.39066e-11 0)
(0.113895 -1.3068785e-11 0)
(0.113895 1.2373438e-11 0)
(0.113895 -1.3059948e-11 0)
(0.113895 1.392868e-11 0)
(0.113895 -1.3074865e-11 0)
(0.113895 1.2329585e-11 0)
(0.113895 -1.3147273e-11 0)
(0.113895 1.3801699e-11 0)
(0.113895 -1.3187713e-11 0)
(0.113895 1.2313567e-11 0)
(0.113895 -1.2961908e-11 0)
(0.113895 1.4306451e-11 0)
(0.113895 -1.2284292e-11 0)
(0.113895 1.3845815e-11 0)
(0.113895 -1.0295223e-11 0)
(0.113895 1.9009853e-11 0)
(0.113895 -4.5053145e-12 0)
(0.113895 2.8103885e-11 0)
(0.113895 1.1636331e-11 0)
(0.113895 5.2735129e-11 0)
(0.113895 4.1101747e-11 0)
(0.113895 6.7150873e-11 0)
(0.113895 -5.3630241e-12 0)
(0.113895 -2.5051187e-10 0)
(0.113895 -1.3332928e-09 0)
(0.113895 -3.6441802e-09 0)
(0.11389502 -9.6168786e-09 0)
(0.11389506 -2.9255388e-08 0)
(0.11389507 -3.0880366e-08 0)
(0.11389518 5.6482875e-09 0)
(0.22919963 0.00076783477 0)
(0.23022873 0.0017534325 0)
(0.2288898 0.0013655984 0)
(0.22812392 0.00069475992 0)
(0.22791015 0.00029972421 0)
(0.22781889 0.00012987086 0)
(0.22775372 5.6462721e-05 0)
(0.22772126 2.4253866e-05 0)
(0.2277086 1.1612728e-05 0)
(0.22770205 6.5397978e-06 0)
(0.22769772 3.8547962e-06 0)
(0.22769505 2.1933069e-06 0)
(0.22769348 1.1890273e-06 0)
(0.22769258 6.0968464e-07 0)
(0.22769208 2.9176702e-07 0)
(0.22769182 1.285425e-07 0)
(0.2276917 5.0632865e-08 0)
(0.22769164 1.623768e-08 0)
(0.22769161 2.6229947e-09 0)
(0.2276916 -1.6589272e-09 0)
(0.2276916 -2.3607203e-09 0)
(0.2276916 -1.8870208e-09 0)
(0.2276916 -1.2189794e-09 0)
(0.2276916 -6.3922372e-10 0)
(0.2276916 -2.599726e-10 0)
(0.22769161 -1.5885605e-11 0)
(0.22769161 9.4319265e-11 0)
(0.22769161 1.5842152e-10 0)
(0.22769161 1.6295714e-10 0)
(0.22769161 1.6733378e-10 0)
(0.22769161 1.3707234e-10 0)
(0.22769161 1.2354595e-10 0)
(0.22769161 9.284906e-11 0)
(0.22769161 8.5203201e-11 0)
(0.22769161 5.658959e-11 0)
(0.22769161 4.9803348e-11 0)
(0.22769161 3.1830376e-11 0)
(0.22769161 3.3098475e-11 0)
(0.22769161 1.7954138e-11 0)
(0.22769161 1.7853078e-11 0)
(0.22769161 9.1870358e-12 0)
(0.22769161 1.4681879e-11 0)
(0.22769161 5.1430762e-12 0)
(0.22769161 7.4779511e-12 0)
(0.22769161 1.812906e-12 0)
(0.22769161 8.6291925e-12 0)
(0.22769161 8.1179886e-13 0)
(0.22769161 3.8590832e-12 0)
(0.22769161 -1.0246894e-12 0)
(0.22769161 6.2211164e-12 0)
(0.22769161 -1.1819428e-12 0)
(0.22769161 2.2382502e-12 0)
(0.22769161 -2.3510424e-12 0)
(0.22769161 5.1427196e-12 0)
(0.22769161 -2.0430981e-12 0)
(0.22769161 1.574525e-12 0)
(0.22769161 -2.8673207e-12 0)
(0.22769161 4.7337037e-12 0)
(0.22769161 -2.364591e-12 0)
(0.22769161 1.3284665e-12 0)
(0.22769161 -3.060413e-12 0)
(0.22769161 4.5769085e-12 0)
(0.22769161 -2.4868245e-12 0)
(0.22769161 1.2370793e-12 0)
(0.22769161 -3.1278657e-12 0)
(0.22769161 4.5295298e-12 0)
(0.22769161 -2.5134261e-12 0)
(0.22769161 1.2334892e-12 0)
(0.22769161 -3.1064612e-12 0)
(0.22769161 4.5782064e-12 0)
(0.22769161 -2.4401386e-12 0)
(0.22769161 1.3220813e-12 0)
(0.22769161 -3.0171728e-12 0)
(0.22769161 4.6417257e-12 0)
(0.22769161 -2.4371365e-12 0)
(0.22769161 1.2239157e-12 0)
(0.22769161 -3.2433712e-12 0)
(0.22769161 4.3082285e-12 0)
(0.22769161 -2.7676778e-12 0)
(0.22769161 1.1343425e-12 0)
(0.22769161 -2.7643802e-12 0)
(0.22769161 5.6089976e-12 0)
(0.22769161 -4.7741807e-13 0)
(0.22769161 4.8406139e-12 0)
(0.22769161 2.7059558e-12 0)
(0.22769161 1.4872325e-11 0)
(0.22769161 1.2167241e-11 0)
(0.22769161 2.0026918e-11 0)
(0.22769161 1.1563066e-11 0)
(0.22769161 -1.3489888e-12 0)
(0.22769161 -1.0040643e-10 0)
(0.22769161 -3.0228018e-10 0)
(0.22769161 -8.0422252e-10 0)
(0.22769161 -2.0244805e-09 0)
(0.22769162 -5.488196e-09 0)
(0.22769162 -1.2303259e-08 0)
(0.22769164 -2.612896e-08 0)
(0.22769172 -7.7171111e-08 0)
(0.22769159 -9.2841311e-08 0)
(0.22769184 6.3473488e-10 0)
(0.27599183 0.00064875687 0)
(0.27841296 0.0016875351 0)
(0.27762123 0.0014715417 0)
(0.27728989 0.00084815715 0)
(0.27739285 0.00040923263 0)
(0.27744761 0.00018858042 0)
(0.27743071 8.476685e-05 0)
(0.27741668 3.7859629e-05 0)
(0.27741436 1.86441e-05 0)
(0.27741363 1.0671526e-05 0)
(0.27741245 6.5299631e-06 0)
(0.27741158 3.9501319e-06 0)
(0.27741103 2.304318e-06 0)
(0.27741066 1.2864329e-06 0)
(0.27741042 6.8479778e-07 0)
(0.27741028 3.4778392e-07 0)
(0.2774102 1.6869751e-07 0)
(0.27741016 7.7823428e-08 0)
(0.27741014 3.3712126e-08 0)
(0.27741013 1.3287762e-08 0)
(0.27741013 4.4632941e-09 0)
(0.27741013 9.7670363e-10 0)
(0.27741013 -1.8000675e-10 0)
(0.27741013 -4.1967618e-10 0)
(0.27741013 -3.3067332e-10 0)
(0.27741013 -1.9190867e-10 0)
(0.27741013 -6.3676604e-11 0)
(0.27741013 1.2323367e-11 0)
(0.27741013 6.3976807e-11 0)
(0.27741013 8.4048741e-11 0)
(0.27741013 8.9682763e-11 0)
(0.27741013 8.2183828e-11 0)
(0.27741013 7.6787738e-11 0)
(0.27741013 6.5533869e-11 0)
(0.27741013 5.7444142e-11 0)
(0.27741013 4.4156642e-11 0)
(0.27741013 4.0015658e-11 0)
(0.27741013 3.1394886e-11 0)
(0.27741013 2.8153082e-11 0)
(0.27741013 1.9748942e-11 0)
(0.27741013 1.9564813e-11 0)
(0.27741013 1.4503169e-11 0)
(0.27741013 1.3852976e-11 0)
(0.27741013 7.375665e-12 0)
(0.27741013 9.7544824e-12 0)
(0.27741013 6.0397334e-12 0)
(0.27741013 7.2178465e-12 0)
(0.27741013 1.6410181e-12 0)
(0.27741013 5.1404098e-12 0)
(0.27741013 2.1221026e-12 0)
(0.27741013 3.994232e-12 0)
(0.27741013 -9.4548092e-13 0)
(0.27741013 3.0540301e-12 0)
(0.27741013 4.2883114e-13 0)
(0.27741013 2.6310056e-12 0)
(0.27741013 -2.0423594e-12 0)
(0.27741013 2.1872586e-12 0)
(0.27741013 -2.6667741e-13 0)
(0.27741013 2.0733751e-12 0)
(0.27741013 -2.490433e-12 0)
(0.27741013 1.8318067e-12 0)
(0.27741013 -5.4977361e-13 0)
(0.27741013 1.8497052e-12 0)
(0.27741013 -2.6660597e-12 0)
(0.27741013 1.697892e-12 0)
(0.27741013 -6.4956506e-13 0)
(0.27741013 1.7814923e-12 0)
(0.27741013 -2.7034606e-12 0)
(0.27741013 1.6917724e-12 0)
(0.27741013 -6.262588e-13 0)
(0.27741013 1.8269315e-12 0)
(0.27741013 -2.6565526e-12 0)
(0.27741013 1.704096e-12 0)
(0.27741013 -6.9462569e-13 0)
(0.27741013 1.6058368e-12 0)
(0.27741013 -3.1056754e-12 0)
(0.27741013 9.6135786e-13 0)
(0.27741013 -1.728944e-12 0)
(0.27741013 4.2151931e-13 0)
(0.27741013 -4.1775334e-12 0)
(0.27741013 3.8812732e-13 0)
(0.27741013 -1.350134e-12 0)
(0.27741013 2.0698992e-12 0)
(0.27741013 -9.2466999e-13 0)
(0.27741013 5.3651663e-12 0)
(0.27741013 5.7486178e-12 0)
(0.27741013 8.4156919e-12 0)
(0.27741013 -4.8695378e-12 0)
(0.27741013 -3.5737072e-11 0)
(0.27741013 -1.4332804e-10 0)
(0.27741013 -3.8004173e-10 0)
(0.27741014 -9.2053973e-10 0)
(0.27741014 -2.0014343e-09 0)
(0.27741014 -4.3597706e-09 0)
(0.27741014 -9.8255491e-09 0)
(0.27741014 -2.0534608e-08 0)
(0.27741013 -3.8417205e-08 0)
(0.27741023 -9.4461047e-08 0)
(0.27740996 -1.1377216e-07 0)
(0.27741025 -6.4457062e-09 0)
(0.29361922 0.00037699501 0)
(0.29653508 0.0010683713 0)
(0.29591282 0.00099942064 0)
(0.29583807 0.00061876763 0)
(0.2961821 0.00031718438 0)
(0.2963656 0.00015162932 0)
(0.29639869 6.9702732e-05 0)
(0.29640557 3.1759031e-05 0)
(0.29641463 1.5827791e-05 0)
(0.29642045 9.1266175e-06 0)
(0.29642314 5.6816748e-06 0)
(0.2964247 3.5313593e-06 0)
(0.29642568 2.1243601e-06 0)
(0.29642622 1.2252177e-06 0)
(0.2964265 6.7562406e-07 0)
(0.29642664 3.5673883e-07 0)
(0.29642671 1.8082956e-07 0)
(0.29642674 8.7857102e-08 0)
(0.29642676 4.070818e-08 0)
(0.29642677 1.7651236e-08 0)
(0.29642677 6.985815e-09 0)
(0.29642677 2.2540943e-09 0)
(0.29642678 4.1710493e-10 0)
(0.29642678 -2.646315e-10 0)
(0.29642678 -3.4645327e-10 0)
(0.29642678 -3.3507441e-10 0)
(0.29642678 -1.9578669e-10 0)
(0.29642678 -1.5730736e-10 0)
(0.29642678 -4.9733123e-11 0)
(0.29642678 -5.2953504e-11 0)
(0.29642678 2.1183757e-11 0)
(0.29642679 -9.9213089e-12 0)
(0.29642679 4.3869383e-11 0)
(0.29642679 2.6542714e-12 0)
(0.29642679 4.800894e-11 0)
(0.29642679 3.7056706e-12 0)
(0.29642679 4.3443936e-11 0)
(0.29642679 3.9137832e-13 0)
(0.29642679 3.940232e-11 0)
(0.29642679 -3.7017209e-12 0)
(0.29642679 3.3555367e-11 0)
(0.29642679 -8.3619016e-12 0)
(0.29642679 2.9998599e-11 0)
(0.29642679 -1.1855518e-11 0)
(0.29642679 2.6033389e-11 0)
(0.29642679 -1.4521812e-11 0)
(0.29642679 2.4547163e-11 0)
(0.29642679 -1.625305e-11 0)
(0.29642679 2.2303532e-11 0)
(0.29642679 -1.7543095e-11 0)
(0.29642679 2.2090329e-11 0)
(0.29642679 -1.8268698e-11 0)
(0.29642679 2.0655964e-11 0)
(0.29642679 -1.8891733e-11 0)
(0.29642679 2.0995334e-11 0)
(0.29642679 -1.9177013e-11 0)
(0.29642679 1.9908656e-11 0)
(0.29642679 -1.9494369e-11 0)
(0.29642679 2.0511331e-11 0)
(0.29642679 -1.9572583e-11 0)
(0.29642679 1.9587565e-11 0)
(0.29642679 -1.974894e-11 0)
(0.29642679 2.0308855e-11 0)
(0.29642679 -1.973508e-11 0)
(0.29642679 1.9460071e-11 0)
(0.29642679 -1.9844535e-11 0)
(0.29642679 2.0240721e-11 0)
(0.29642679 -1.9777031e-11 0)
(0.29642679 1.944415e-11 0)
(0.29642679 -1.9836097e-11 0)
(0.29642679 2.0266389e-11 0)
(0.29642679 -1.9757486e-11 0)
(0.29642679 1.9413953e-11 0)
(0.29642679 -1.9983494e-11 0)
(0.29642679 1.9910613e-11 0)
(0.29642679 -2.0440794e-11 0)
(0.29642679 1.8240756e-11 0)
(0.29642679 -2.1714976e-11 0)
(0.29642679 1.7669788e-11 0)
(0.29642679 -2.2955429e-11 0)
(0.29642679 1.5717731e-11 0)
(0.29642679 -2.3690476e-11 0)
(0.29642679 1.6571196e-11 0)
(0.29642679 -2.2441361e-11 0)
(0.29642679 1.8475179e-11 0)
(0.29642679 -1.9255653e-11 0)
(0.29642679 2.1041678e-11 0)
(0.29642679 -2.8178862e-11 0)
(0.29642679 -2.5150681e-11 0)
(0.29642679 -1.7968675e-10 0)
(0.29642679 -3.9014752e-10 0)
(0.29642679 -9.6041227e-10 0)
(0.29642679 -1.9841637e-09 0)
(0.29642678 -4.21089e-09 0)
(0.29642678 -8.920862e-09 0)
(0.29642677 -1.8166296e-08 0)
(0.29642675 -3.2058755e-08 0)
(0.29642685 -7.0141354e-08 0)
(0.29642651 -8.4363582e-08 0)
(0.29642678 -9.2292895e-09 0)
(0.29924465 0.00011820304 0)
(0.30225495 0.00035152517 0)
(0.30161484 0.00034122056 0)
(0.30161652 0.00021904836 0)
(0.30206476 0.00011567641 0)
(0.30231147 5.6332865e-05 0)
(0.3023713 2.6198948e-05 0)
(0.30238986 1.2046004e-05 0)
(0.30240523 6.026298e-06 0)
(0.30241471 3.4792006e-06 0)
(0.30241961 2.1791002e-06 0)
(0.30242262 1.3690946e-06 0)
(0.30242456 8.3362412e-07 0)
(0.3024257 4.8655276e-07 0)
(0.30242633 2.7124296e-07 0)
(0.30242667 1.4453087e-07 0)
(0.30242686 7.3614759e-08 0)
(0.30242695 3.5681501e-08 0)
(0.302427 1.6217137e-08 0)
(0.30242702 6.6630407e-09 0)
(0.30242703 2.2218319e-09 0)
(0.30242704 3.1539385e-10 0)
(0.30242704 -3.9946286e-10 0)
(0.30242705 -5.9797332e-10 0)
(0.30242705 -5.7012532e-10 0)
(0.30242705 -4.8015359e-10 0)
(0.30242705 -3.5954428e-10 0)
(0.30242705 -2.7714962e-10 0)
(0.30242705 -1.9024877e-10 0)
(0.30242705 -1.4328914e-10 0)
(0.30242705 -8.2270788e-11 0)
(0.30242705 -6.6730345e-11 0)
(0.30242705 -3.0193068e-11 0)
(0.30242705 -2.6879419e-11 0)
(0.30242705 1.1765565e-12 0)
(0.30242705 -1.0112666e-11 0)
(0.30242705 8.1579313e-12 0)
(0.30242705 -3.7469654e-12 0)
(0.30242705 1.538543e-11 0)
(0.30242705 -3.4634766e-12 0)
(0.30242705 1.1122483e-11 1.8797863e-33)
(0.30242705 -3.6251435e-12 0)
(0.30242705 1.4420039e-11 0)
(0.30242705 -4.9482016e-12 0)
(0.30242705 9.1740706e-12 0)
(0.30242705 -5.5058073e-12 0)
(0.30242705 1.2512819e-11 0)
(0.30242705 -6.5597904e-12 0)
(0.30242705 7.7117942e-12 0)
(0.30242705 -6.7532934e-12 0)
(0.30242705 1.1373865e-11 0)
(0.30242705 -7.5668782e-12 0)
(0.30242705 6.837304e-12 0)
(0.30242705 -7.4951721e-12 0)
(0.30242705 1.0742111e-11 0)
(0.30242705 -8.0762249e-12 0)
(0.30242705 6.4247882e-12 0)
(0.30242705 -7.8282741e-12 0)
(0.30242705 1.0473607e-11 0)
(0.30242705 -8.2851749e-12 0)
(0.30242705 6.2597992e-12 0)
(0.30242705 -7.962347e-12 0)
(0.30242705 1.0366114e-11 0)
(0.30242705 -8.3680146e-12 0)
(0.30242705 6.194182e-12 0)
(0.30242705 -8.0178708e-12 0)
(0.30242705 1.0313505e-11 0)
(0.30242705 -8.4211588e-12 0)
(0.30242705 6.1384987e-12 0)
(0.30242705 -8.082051e-12 0)
(0.30242705 1.0227324e-11 0)
(0.30242705 -8.5478053e-12 0)
(0.30242705 5.9409005e-12 0)
(0.30242705 -8.4256543e-12 0)
(0.30242705 9.6181737e-12 0)
(0.30242705 -9.5958875e-12 0)
(0.30242705 4.3038126e-12 0)
(0.30242705 -1.0865599e-11 0)
(0.30242705 6.2756093e-12 0)
(0.30242705 -1.380799e-11 0)
(0.30242705 -3.6205778e-13 0)
(0.30242705 -1.5468602e-11 0)
(0.30242705 2.6297838e-12 0)
(0.30242705 -1.5330088e-11 0)
(0.30242706 1.5744373e-12 0)
(0.30242705 -8.7044947e-12 0)
(0.30242706 1.5468706e-11 0)
(0.30242705 1.9381704e-12 0)
(0.30242706 1.3159843e-11 0)
(0.30242705 -3.2819267e-11 0)
(0.30242705 -1.1637473e-10 0)
(0.30242705 -3.0339218e-10 0)
(0.30242705 -6.8612866e-10 2.9618482e-35)
(0.30242705 -1.4968982e-09 0)
(0.30242705 -3.2878768e-09 0)
(0.30242704 -6.7856191e-09 8.8855454e-36)
(0.302427 -1.186006e-08 0)
(0.3024271 -2.4796126e-08 0)
(0.30242673 -2.9970614e-08 0)
(0.302427 -4.0885631e-09 0)
(0.29924473 -0.00011820979 0)
(0.30225495 -0.00035155391 0)
(0.30161486 -0.00034127613 0)
(0.30161657 -0.00021913107 0)
(0.30206479 -0.00011577041 0)
(0.30231147 -5.6417634e-05 0)
(0.3023713 -2.6261945e-05 0)
(0.30238985 -1.2089454e-05 0)
(0.30240522 -6.0560675e-06 0)
(0.3024147 -3.5009347e-06 0)
(0.3024196 -2.1957737e-06 0)
(0.30242261 -1.3826064e-06 0)
(0.30242455 -8.4507005e-07 0)
(0.3024257 -4.9645386e-07 0)
(0.30242633 -2.7997924e-07 0)
(0.30242667 -1.5210298e-07 0)
(0.30242686 -8.0253861e-08 0)
(0.30242695 -4.1287044e-08 0)
(0.302427 -2.104162e-08 0)
(0.30242702 -1.0605673e-08 0)
(0.30242703 -5.5608294e-09 0)
(0.30242704 -2.9299415e-09 0)
(0.30242704 -1.796416e-09 0)
(0.30242705 -1.0746064e-09 0)
(0.30242705 -8.5564177e-10 0)
(0.30242705 -5.334414e-10 0)
(0.30242705 -5.1607502e-10 0)
(0.30242705 -2.9643475e-10 0)
(0.30242705 -3.3205143e-10 0)
(0.30242705 -1.3948897e-10 0)
(0.30242705 -2.0698855e-10 0)
(0.30242705 -4.8431222e-11 0)
(0.30242705 -1.3885027e-10 0)
(0.30242705 9.6798723e-12 0)
(0.30242705 -9.285134e-11 0)
(0.30242705 3.4608421e-11 0)
(0.30242705 -7.6137951e-11 0)
(0.30242705 5.1875547e-11 0)
(0.30242705 -6.2877986e-11 0)
(0.30242705 5.3676216e-11 0)
(0.30242705 -6.3218491e-11 -1.8797863e-33)
(0.30242705 6.0282221e-11 0)
(0.30242705 -5.7297324e-11 0)
(0.30242705 5.7131651e-11 0)
(0.30242705 -6.1130952e-11 0)
(0.30242705 6.1538628e-11 0)
(0.30242705 -5.6635829e-11 0)
(0.30242705 5.7421283e-11 0)
(0.30242705 -6.1021865e-11 0)
(0.30242705 6.1536015e-11 0)
(0.30242705 -5.6712457e-11 0)
(0.30242705 5.7314281e-11 0)
(0.30242705 -6.1136033e-11 0)
(0.30242705 6.1421845e-11 0)
(0.30242705 -5.6831171e-11 0)
(0.30242705 5.7201307e-11 0)
(0.30242705 -6.1231809e-11 0)
(0.30242705 6.1346794e-11 0)
(0.30242705 -5.6893068e-11 0)
(0.30242705 5.7148665e-11 0)
(0.30242705 -6.1272642e-11 0)
(0.30242705 6.1318545e-11 0)
(0.30242705 -5.6914574e-11 0)
(0.30242705 5.7130954e-11 0)
(0.30242705 -6.1289591e-11 0)
(0.30242705 6.1296559e-11 0)
(0.30242705 -5.694897e-11 0)
(0.30242705 5.7077747e-11 0)
(0.30242705 -6.1367695e-11 0)
(0.30242705 6.1188124e-11 0)
(0.30242705 -5.7099132e-11 0)
(0.30242705 5.6875051e-11 0)
(0.30242705 -6.1659482e-11 0)
(0.30242705 6.0751676e-11 0)
(0.30242705 -5.7799846e-11 0)
(0.30242705 5.5734407e-11 0)
(0.30242705 -6.3426868e-11 0)
(0.30242705 5.8075757e-11 0)
(0.30242705 -6.1546778e-11 0)
(0.30242705 5.083223e-11 0)
(0.30242705 -6.9199961e-11 0)
(0.30242705 5.1912632e-11 0)
(0.30242705 -6.664558e-11 0)
(0.30242705 4.8138036e-11 0)
(0.30242705 -6.7393856e-11 0)
(0.30242705 6.1305946e-11 0)
(0.30242706 -4.5427803e-11 0)
(0.30242705 9.2480791e-11 0)
(0.30242706 1.07801e-11 0)
(0.30242705 2.1281813e-10 0)
(0.30242705 2.5603677e-10 0)
(0.30242705 6.4412196e-10 0)
(0.30242705 1.098104e-09 -2.9618482e-35)
(0.30242705 2.1925846e-09 0)
(0.30242705 4.0068233e-09 0)
(0.30242704 7.6581058e-09 -8.8855454e-36)
(0.302427 1.2677245e-08 0)
(0.3024271 2.5414293e-08 0)
(0.30242673 3.0280107e-08 0)
(0.302427 4.2315554e-09 0)
(0.29361934 -0.00037699444 0)
(0.29653525 -0.0010683758 0)
(0.29591299 -0.00099944455 0)
(0.29583816 -0.0006188157 0)
(0.29618213 -0.0003172447 0)
(0.2963656 -0.00015168503 0)
(0.29639867 -6.9746271e-05 0)
(0.29640555 -3.1790133e-05 0)
(0.2964146 -1.5850168e-05 0)
(0.29642043 -9.1431753e-06 0)
(0.29642312 -5.6945375e-06 0)
(0.29642468 -3.5417636e-06 0)
(0.29642567 -2.133024e-06 0)
(0.29642622 -1.2326693e-06 0)
(0.29642649 -6.8204387e-07 0)
(0.29642664 -3.6239745e-07 0)
(0.29642671 -1.8567975e-07 0)
(0.29642674 -9.2098068e-08 0)
(0.29642676 -4.4267478e-08 0)
(0.29642677 -2.074682e-08 0)
(0.29642677 -9.5213378e-09 0)
(0.29642677 -4.4352127e-09 0)
(0.29642678 -2.1421838e-09 0)
(0.29642678 -1.210065e-09 0)
(0.29642678 -7.5627305e-10 0)
(0.29642678 -5.923122e-10 0)
(0.29642678 -4.5210954e-10 0)
(0.29642678 -4.0486115e-10 0)
(0.29642678 -2.962393e-10 0)
(0.29642678 -2.587965e-10 0)
(0.29642678 -1.7337716e-10 0)
(0.29642679 -1.620607e-10 0)
(0.29642679 -8.8145797e-11 0)
(0.29642679 -8.8421825e-11 0)
(0.29642679 -3.7574652e-11 0)
(0.29642679 -5.7795331e-11 0)
(0.29642679 -1.0741603e-11 0)
(0.29642679 -3.1010359e-11 0)
(0.29642679 3.6238218e-12 0)
(0.29642679 -2.8664614e-11 0)
(0.29642679 9.2669954e-12 0)
(0.29642679 -1.741836e-11 0)
(0.29642679 1.2578704e-11 0)
(0.29642679 -2.2514058e-11 0)
(0.29642679 1.3528508e-11 0)
(0.29642679 -1.4387031e-11 0)
(0.29642679 1.4763437e-11 0)
(0.29642679 -2.0796365e-11 0)
(0.29642679 1.4935243e-11 0)
(0.29642679 -1.3295365e-11 0)
(0.29642679 1.5627584e-11 0)
(0.29642679 -2.0117238e-11 0)
(0.29642679 1.547284e-11 0)
(0.29642679 -1.2861793e-11 0)
(0.29642679 1.5995658e-11 0)
(0.29642679 -1.9825222e-11 0)
(0.29642679 1.5701047e-11 0)
(0.29642679 -1.2675989e-11 0)
(0.29642679 1.6155531e-11 0)
(0.29642679 -1.9694714e-11 0)
(0.29642679 1.5804976e-11 0)
(0.29642679 -1.258927e-11 0)
(0.29642679 1.6231459e-11 0)
(0.29642679 -1.9631681e-11 0)
(0.29642679 1.5853108e-11 0)
(0.29642679 -1.2556139e-11 0)
(0.29642679 1.6247484e-11 0)
(0.29642679 -1.9639516e-11 0)
(0.29642679 1.5817365e-11 0)
(0.29642679 -1.2625091e-11 0)
(0.29642679 1.6142454e-11 0)
(0.29642679 -1.9785832e-11 0)
(0.29642679 1.5610395e-11 0)
(0.29642679 -1.2936297e-11 0)
(0.29642679 1.5643121e-11 0)
(0.29642679 -2.0577621e-11 0)
(0.29642679 1.4260158e-11 0)
(0.29642679 -1.5073182e-11 0)
(0.29642679 1.2436069e-11 0)
(0.29642679 -2.4868303e-11 0)
(0.29642679 9.0013395e-12 0)
(0.29642679 -2.0437663e-11 0)
(0.29642679 8.0417578e-12 0)
(0.29642679 -2.6734831e-11 0)
(0.29642679 1.1809366e-11 0)
(0.29642679 -9.9293541e-12 0)
(0.29642679 3.4126059e-11 0)
(0.29642679 2.9144702e-11 0)
(0.29642679 1.3048686e-10 0)
(0.29642679 2.522719e-10 0)
(0.29642679 5.9889263e-10 0)
(0.29642679 1.1814446e-09 0)
(0.29642679 2.4081015e-09 0)
(0.29642678 4.7016517e-09 0)
(0.29642678 9.5804269e-09 0)
(0.29642678 1.8871699e-08 0)
(0.29642675 3.2764606e-08 0)
(0.29642685 7.0631414e-08 0)
(0.29642651 8.4613754e-08 0)
(0.29642678 9.3608482e-09 0)
(0.27599187 -0.00064875876 0)
(0.27841302 -0.0016875398 0)
(0.27762129 -0.0014715475 0)
(0.27728991 -0.00084815873 0)
(0.27739284 -0.00040923879 0)
(0.27744757 -0.00018859435 0)
(0.27743066 -8.4786142e-05 0)
(0.27741664 -3.7877909e-05 0)
(0.27741432 -1.8659129e-05 0)
(0.2774136 -1.068285e-05 0)
(0.27741243 -6.5384753e-06 0)
(0.27741156 -3.9565109e-06 0)
(0.27741102 -2.3091405e-06 0)
(0.27741065 -1.2902742e-06 0)
(0.27741041 -6.8786998e-07 0)
(0.27741027 -3.5046558e-07 0)
(0.2774102 -1.7091947e-07 0)
(0.27741016 -7.9863723e-08 0)
(0.27741014 -3.5412975e-08 0)
(0.27741013 -1.4903357e-08 0)
(0.27741013 -5.7991028e-09 0)
(0.27741013 -2.2567976e-09 0)
(0.27741013 -8.3051975e-10 0)
(0.27741013 -5.5417622e-10 0)
(0.27741013 -3.7257513e-10 0)
(0.27741013 -4.9914217e-10 0)
(0.27741013 -3.7926222e-10 0)
(0.27741013 -4.6513732e-10 0)
(0.27741013 -2.929359e-10 0)
(0.27741013 -3.5457351e-10 0)
(0.27741013 -1.8344049e-10 0)
(0.27741013 -2.5003372e-10 0)
(0.27741013 -8.1482086e-11 0)
(0.27741013 -1.6604486e-10 0)
(0.27741013 -2.6249957e-11 0)
(0.27741013 -1.2183243e-10 0)
(0.27741013 1.5057621e-11 0)
(0.27741013 -9.0248785e-11 0)
(0.27741013 2.9427292e-11 0)
(0.27741013 -7.9159167e-11 0)
(0.27741013 4.6434801e-11 0)
(0.27741013 -6.7075195e-11 0)
(0.27741013 4.6811338e-11 0)
(0.27741013 -6.6182287e-11 0)
(0.27741013 5.6218937e-11 0)
(0.27741013 -5.9771709e-11 0)
(0.27741013 5.2333311e-11 0)
(0.27741013 -6.2106648e-11 0)
(0.27741013 5.9181631e-11 0)
(0.27741013 -5.7517786e-11 0)
(0.27741013 5.4084303e-11 0)
(0.27741013 -6.0744747e-11 0)
(0.27741013 6.0248552e-11 0)
(0.27741013 -5.6678648e-11 0)
(0.27741013 5.4729612e-11 0)
(0.27741013 -6.0227653e-11 0)
(0.27741013 6.0675161e-11 0)
(0.27741013 -5.633015e-11 0)
(0.27741013 5.5007751e-11 0)
(0.27741013 -5.9998989e-11 0)
(0.27741013 6.0867519e-11 0)
(0.27741013 -5.616982e-11 0)
(0.27741013 5.513893e-11 0)
(0.27741013 -5.9889909e-11 0)
(0.27741013 6.0955706e-11 0)
(0.27741013 -5.6108551e-11 0)
(0.27741013 5.5166704e-11 0)
(0.27741013 -5.9901213e-11 0)
(0.27741013 6.0899865e-11 0)
(0.27741013 -5.6214054e-11 0)
(0.27741013 5.5016068e-11 0)
(0.27741013 -6.0106522e-11 0)
(0.27741013 6.0647255e-11 0)
(0.27741013 -5.6527015e-11 0)
(0.27741013 5.460222e-11 0)
(0.27741013 -6.0773638e-11 0)
(0.27741013 5.9508995e-11 0)
(0.27741013 -5.8401384e-11 0)
(0.27741013 5.1639729e-11 0)
(0.27741013 -6.4970107e-11 0)
(0.27741013 5.4270676e-11 0)
(0.27741013 -6.4062936e-11 0)
(0.27741013 4.6680708e-11 0)
(0.27741013 -6.7862548e-11 0)
(0.27741013 5.4978352e-11 0)
(0.27741013 -5.7317445e-11 0)
(0.27741013 6.7015232e-11 0)
(0.27741013 -2.1548114e-11 0)
(0.27741013 1.6517859e-10 0)
(0.27741013 1.8239658e-10 0)
(0.27741014 5.7486108e-10 0)
(0.27741014 1.0530583e-09 0)
(0.27741014 2.3096309e-09 0)
(0.27741014 4.616051e-09 0)
(0.27741014 1.027895e-08 0)
(0.27741014 2.1021773e-08 0)
(0.27741013 3.8901896e-08 0)
(0.27741023 9.4765736e-08 0)
(0.27740996 1.1391623e-07 0)
(0.27741025 6.529692e-09 0)
(0.22919957 -0.00076782931 0)
(0.23022864 -0.0017534169 0)
(0.22888972 -0.0013655638 0)
(0.22812387 -0.000694711 0)
(0.2279101 -0.00029968104 0)
(0.22781885 -0.00012984762 0)
(0.22775369 -5.645607e-05 0)
(0.22772124 -2.4255183e-05 0)
(0.22770858 -1.1615877e-05 0)
(0.22770203 -6.5427105e-06 0)
(0.2276977 -3.8568523e-06 0)
(0.22769503 -2.1944903e-06 0)
(0.22769347 -1.189516e-06 0)
(0.22769257 -6.0960867e-07 0)
(0.22769208 -2.9142667e-07 0)
(0.22769182 -1.2799241e-07 0)
(0.22769169 -5.0127629e-08 0)
(0.22769163 -1.5721341e-08 0)
(0.22769161 -2.283361e-09 0)
(0.2276916 1.9661226e-09 0)
(0.2276916 2.5076269e-09 0)
(0.2276916 1.9741738e-09 0)
(0.2276916 1.1305698e-09 0)
(0.2276916 5.7369141e-10 0)
(0.2276916 1.0969788e-10 0)
(0.22769161 -6.7814841e-11 0)
(0.22769161 -2.4200901e-10 0)
(0.22769161 -2.1825293e-10 0)
(0.22769161 -2.714211e-10 0)
(0.22769161 -1.8897189e-10 0)
(0.22769161 -2.1405471e-10 0)
(0.22769161 -1.1316704e-10 0)
(0.22769161 -1.4229518e-10 0)
(0.22769161 -5.9301503e-11 0)
(0.22769161 -9.8694915e-11 0)
(0.22769161 -1.8569161e-11 0)
(0.22769161 -6.4784497e-11 0)
(0.22769161 -1.5410667e-13 0)
(0.22769161 -5.3142485e-11 0)
(0.22769161 1.5516205e-11 0)
(0.22769161 -3.8900971e-11 0)
(0.22769161 1.9147046e-11 0)
(0.22769161 -3.8435527e-11 0)
(0.22769161 2.649771e-11 0)
(0.22769161 -3.0776787e-11 0)
(0.22769161 2.5180376e-11 0)
(0.22769161 -3.3926719e-11 0)
(0.22769161 2.969811e-11 0)
(0.22769161 -2.8532483e-11 0)
(0.22769161 2.6865613e-11 0)
(0.22769161 -3.2628418e-11 0)
(0.22769161 3.0690101e-11 0)
(0.22769161 -2.7759069e-11 0)
(0.22769161 2.7472712e-11 0)
(0.22769161 -3.2166538e-11 0)
(0.22769161 3.1065636e-11 0)
(0.22769161 -2.7443188e-11 0)
(0.22769161 2.7732856e-11 0)
(0.22769161 -3.1959771e-11 0)
(0.22769161 3.1237301e-11 0)
(0.22769161 -2.7296303e-11 0)
(0.22769161 2.7855357e-11 0)
(0.22769161 -3.1859756e-11 0)
(0.22769161 3.132162e-11 0)
(0.22769161 -2.7225955e-11 0)
(0.22769161 2.790716e-11 0)
(0.22769161 -3.1831143e-11 0)
(0.22769161 3.1325963e-11 0)
(0.22769161 -2.725276e-11 0)
(0.22769161 2.7850879e-11 0)
(0.22769161 -3.191661e-11 0)
(0.22769161 3.1211869e-11 0)
(0.22769161 -2.7394539e-11 0)
(0.22769161 2.7688515e-11 0)
(0.22769161 -3.2108679e-11 0)
(0.22769161 3.0877732e-11 0)
(0.22769161 -2.7982857e-11 0)
(0.22769161 2.6669238e-11 0)
(0.22769161 -3.3697095e-11 0)
(0.22769161 2.8577232e-11 0)
(0.22769161 -3.0842475e-11 0)
(0.22769161 2.3492395e-11 0)
(0.22769161 -3.6410365e-11 0)
(0.22769161 2.7031208e-11 0)
(0.22769161 -3.1024051e-11 0)
(0.22769161 2.6204067e-11 0)
(0.22769161 -2.9662538e-11 0)
(0.22769161 4.3592146e-11 0)
(0.22769161 6.2657129e-12 0)
(0.22769161 1.0663869e-10 0)
(0.22769161 1.4591068e-10 0)
(0.22769161 4.2793113e-10 0)
(0.22769161 8.5777819e-10 0)
(0.22769161 2.1436258e-09 0)
(0.22769162 5.6614362e-09 0)
(0.22769162 1.2622604e-08 0)
(0.22769164 2.6357342e-08 0)
(0.22769172 7.7234634e-08 0)
(0.22769159 9.2832396e-08 0)
(0.22769184 -6.5447428e-10 0)
(0.11754533 -0.00042448282 0)
(0.11668249 -0.00079320007 0)
(0.11514563 -0.00052388542 0)
(0.11435703 -0.000219646 0)
(0.1140878 -7.9384278e-05 0)
(0.11398522 -3.2190652e-05 0)
(0.11393527 -1.3625975e-05 0)
(0.11391356 -5.4487268e-06 0)
(0.11390492 -2.4698753e-06 0)
(0.11390055 -1.3560012e-06 0)
(0.11389792 -7.3348013e-07 0)
(0.11389642 -3.540503e-07 0)
(0.11389563 -1.5056761e-07 0)
(0.11389523 -5.0752962e-08 0)
(0.11389505 -6.4694186e-09 0)
(0.11389498 9.4494314e-09 0)
(0.11389496 1.235401e-08 0)
(0.11389496 1.0731555e-08 0)
(0.11389497 7.7704691e-09 0)
(0.11389498 5.1097468e-09 0)
(0.11389498 3.0763651e-09 0)
(0.11389499 1.8179862e-09 0)
(0.11389499 8.9742113e-10 0)
(0.113895 4.8540494e-10 0)
(0.113895 1.5655808e-10 0)
(0.113895 8.4609106e-11 0)
(0.113895 -4.9288351e-11 0)
(0.113895 -1.4178817e-11 0)
(0.113895 -9.092831e-11 0)
(0.113895 -2.3159499e-11 0)
(0.113895 -8.0263752e-11 0)
(0.113895 -6.5660373e-13 0)
(0.113895 -6.2883786e-11 0)
(0.113895 1.0638487e-11 0)
(0.113895 -4.8656546e-11 0)
(0.113895 2.4444479e-11 0)
(0.113895 -4.0951378e-11 0)
(0.113895 2.6896509e-11 0)
(0.113895 -3.562365e-11 0)
(0.113895 3.3049213e-11 0)
(0.113895 -3.4586977e-11 0)
(0.113895 3.0893905e-11 0)
(0.113895 -3.3049136e-11 0)
(0.113895 3.4587343e-11 0)
(0.113895 -3.3792915e-11 0)
(0.113895 3.123822e-11 0)
(0.113895 -3.2922896e-11 0)
(0.113895 3.4696768e-11 0)
(0.113895 -3.3673223e-11 0)
(0.113895 3.1307985e-11 0)
(0.113895 -3.2883529e-11 0)
(0.113895 3.4720895e-11 0)
(0.113895 -3.3648316e-11 0)
(0.113895 3.1339961e-11 0)
(0.113895 -3.2838474e-11 0)
(0.113895 3.4755589e-11 0)
(0.113895 -3.3622508e-11 0)
(0.113895 3.1364984e-11 0)
(0.113895 -3.2810909e-11 0)
(0.113895 3.4777821e-11 0)
(0.113895 -3.3604323e-11 0)
(0.113895 3.1381439e-11 0)
(0.113895 -3.27934e-11 0)
(0.113895 3.4793657e-11 0)
(0.113895 -3.3590165e-11 0)
(0.113895 3.1396091e-11 0)
(0.113895 -3.2777937e-11 0)
(0.113895 3.4809411e-11 0)
(0.113895 -3.3577487e-11 0)
(0.113895 3.1405763e-11 0)
(0.113895 -3.2776117e-11 0)
(0.113895 3.4811725e-11 0)
(0.113895 -3.3578494e-11 0)
(0.113895 3.1394003e-11 0)
(0.113895 -3.2798193e-11 0)
(0.113895 3.4799932e-11 0)
(0.113895 -3.3592411e-11 0)
(0.113895 3.1344523e-11 0)
(0.113895 -3.2872028e-11 0)
(0.113895 3.4661393e-11 0)
(0.113895 -3.3715623e-11 0)
(0.113895 3.1429738e-11 0)
(0.113895 -3.261541e-11 0)
(0.113895 3.5118616e-11 0)
(0.113895 -3.3605332e-11 0)
(0.113895 3.1191672e-11 0)
(0.113895 -3.4988117e-11 0)
(0.113895 2.9818114e-11 0)
(0.113895 -4.5061022e-11 0)
(0.113895 1.154075e-11 0)
(0.113895 -6.5181024e-11 0)
(0.113895 1.0551022e-12 0)
(0.113895 -3.9256349e-11 0)
(0.113895 3.0182161e-10 0)
(0.113895 1.3685927e-09 0)
(0.113895 3.7716747e-09 0)
(0.11389502 9.6474951e-09 0)
(0.11389506 2.9206854e-08 0)
(0.11389507 3.0829551e-08 0)
(0.11389518 -5.6861433e-09 0)
)
;

boundaryField
{
    top