/*--------------------------------*- C++ -*----------------------------------*\
  =========                 |
  \\      /  F ield         | OpenFOAM: The Open Source CFD Toolbox
   \\    /   O peration     | Website:  https://openfoam.org
    \\  /    A nd           | Version:  6
     \\/     M anipulation  |
\*---------------------------------------------------------------------------*/
FoamFile
{
    version     2.0;
    format      ascii;
    class       volScalarField;
    location    "23";
    object      pMean;
}
// * * * * * * * * * * * * * * * * * * * * * * * * * * * * * * * * * * * * * //

dimensions      [0 2 -2 0 0 0 0];

internalField   nonuniform List<scalar> 
9200
(
-0.4925544
-0.47616293
-0.46125496
-0.44827435
-0.43546081
-0.42274297
-0.41023916
-0.39789666
-0.38562089
-0.37332706
-0.36094178
-0.34840737
-0.33568914
-0.32278125
-0.30971343
-0.29656317
-0.28344775
-0.27048463
-0.25855903
-0.25137187
-0.51450376
-0.49569853
-0.47891701
-0.46436168
-0.4500334
-0.43584349
-0.42190096
-0.40812921
-0.39441488
-0.38066421
-0.36680433
-0.35278746
-0.3385972
-0.32425116
-0.30980142
-0.29533338
-0.28093612
-0.26666035
-0.25312903
-0.24231609
-0.53622022
-0.51507932
-0.49653401
-0.48049593
-0.46469692
-0.44901586
-0.43354771
-0.41819504
-0.40283586
-0.3873834
-0.371785
-0.35602386
-0.34012161
-0.32413567
-0.30815272
-0.29227917
-0.27661162
-0.26120163
-0.24644312
-0.23344964
-0.55710241
-0.53372995
-0.51352604
-0.49606525
-0.47878426
-0.4615203
-0.44435805
-0.42719303
-0.40991655
-0.39247577
-0.37486653
-0.35712874
-0.33934225
-0.321617
-0.30407993
-0.28686115
-0.2700685
-0.25376073
-0.23821397
-0.22421711
-0.57634965
-0.55093008
-0.52921337
-0.51039603
-0.49160747
-0.47264396
-0.45359481
-0.4343748
-0.4149216
-0.39525063
-0.37543662
-0.35559868
-0.33588695
-0.31646543
-0.29749475
-0.27911768
-0.26144009
-0.24451372
-0.22853195
-0.21405949
-0.59297978
-0.56579849
-0.54276417
-0.52266345
-0.50232872
-0.48153082
-0.46039318
-0.43888974
-0.41704657
-0.39498392
-0.37288109
-0.35094837
-0.32940455
-0.30845516
-0.28827526
-0.26899914
-0.25070988
-0.23343329
-0.21728993
-0.20266267
-0.60585381
-0.57730694
-0.55320431
-0.53190547
-0.50998539
-0.48722264
-0.46381852
-0.43985674
-0.41549726
-0.3909969
-0.366654
-0.3427675
-0.3196088
-0.29740089
-0.27630708
-0.25642934
-0.23780855
-0.22042966
-0.20434294
-0.18977504
-0.61370697
-0.5843147
-0.55946322
-0.53708413
-0.51356739
-0.48874978
-0.46296539
-0.4364634
-0.40957963
-0.38272866
-0.3563281
-0.33074921
-0.30628973
-0.28316106
-0.26148869
-0.24132245
-0.22264818
-0.20540322
-0.18957035
-0.17523918
-0.61512698
-0.58545111
-0.56014661
-0.53676366
-0.51162862
-0.48471177
-0.45654357
-0.42758786
-0.39837899
-0.36948452
-0.3414166
-0.31458372
-0.28927386
-0.26565665
-0.24379889
-0.22368706
-0.2052489
-0.18837644
-0.17299095
-0.15906208
-0.60874912
-0.57924522
-0.5536387
-0.52922679
-0.50243822
-0.47346382
-0.44308526
-0.41200484
-0.38094287
-0.35057991
-0.32147021
-0.29400851
-0.26843299
-0.24484639
-0.22324615
-0.20355591
-0.185653
-0.16939446
-0.15464818
-0.14127681
-0.33658572
-0.3388731
-0.33774258
-0.33530574
-0.33173287
-0.32707395
-0.32151171
-0.31518986
-0.30820215
-0.30062471
-0.29252519
-0.28396375
-0.27499519
-0.265671
-0.25604093
-0.24615569
-0.23606893
-0.22582359
-0.21543768
-0.20503632
-0.34074273
-0.34244991
-0.34093094
-0.33824511
-0.33447739
-0.32966991
-0.32400203
-0.31760915
-0.31057837
-0.30298094
-0.29488038
-0.28633321
-0.27739099
-0.26810201
-0.2585121
-0.24866953
-0.23863455
-0.22844815
-0.21800377
-0.20727187
-0.34878932
-0.34938721
-0.34712651
-0.34395518
-0.33980807
-0.33471075
-0.32883441
-0.32229909
-0.31517923
-0.30753637
-0.29942562
-0.2908961
-0.28199288
-0.27275807
-0.26323048
-0.25345281
-0.24349414
-0.23339582
-0.22284406
-0.21150767
-0.36025955
-0.35930735
-0.35599321
-0.3521091
-0.34739333
-0.34185018
-0.3356396
-0.32886128
-0.32157246
-0.31382093
-0.30564981
-0.2970976
-0.28820002
-0.2789905
-0.26949854
-0.25975824
-0.24984537
-0.23980906
-0.22910059
-0.21695403
-0.37457004
-0.37173768
-0.36711341
-0.36230588
-0.35683191
-0.35067458
-0.34398205
-0.33683125
-0.32925957
-0.3212985
-0.31297634
-0.30431796
-0.29534718
-0.2860869
-0.27655625
-0.26677854
-0.25683127
-0.24677945
-0.23586231
-0.2227789
-0.39112013
-0.38618923
-0.38005781
-0.37414035
-0.36772689
-0.36078367
-0.35344926
-0.34577829
-0.33778715
-0.32948819
-0.32089248
-0.31200991
-0.30285087
-0.29342655
-0.2837454
-0.27381898
-0.26372006
-0.25353328
-0.24234042
-0.22826097
-0.40937665
-0.40222324
-0.39444508
-0.38726345
-0.37974959
-0.3718601
-0.3637284
-0.35538666
-0.34682864
-0.3380476
-0.32903683
-0.31978976
-0.31030239
-0.30057419
-0.29060447
-0.28039553
-0.27001291
-0.25956301
-0.24804144
-0.23300253
-0.42891816
-0.41948731
-0.40997599
-0.40141811
-0.39268032
-0.3837149
-0.37465093
-0.3654999
-0.35623433
-0.34682717
-0.33725225
-0.327485
-0.3175057
-0.30730144
-0.29686383
-0.28619142
-0.27535266
-0.26450075
-0.25265267
-0.23685689
-0.44942657
-0.43769297
-0.42639057
-0.41637356
-0.40631232
-0.39615627
-0.38603362
-0.37593639
-0.36581524
-0.35562214
-0.34531084
-0.33483806
-0.32416696
-0.31326855
-0.30211836
-0.29069667
-0.27904851
-0.26731488
-0.25454184
-0.23766202
-0.47067232
-0.45658742
-0.44341788
-0.43184286
-0.42033647
-0.40884616
-0.39750053
-0.38627314
-0.37509422
-0.36389769
-0.35262209
-0.34121276
-0.32962613
-0.31783054
-0.30580154
-0.2935167
-0.28096481
-0.26801403
-0.25334836
-0.2344831
-0.19336184
-0.17930959
-0.16557981
-0.15234025
-0.1395041
-0.12710218
-0.11520918
-0.10386921
-0.093105433
-0.082937959
-0.073383341
-0.064450663
-0.056142067
-0.04845446
-0.041380138
-0.034907043
-0.029019279
-0.023697718
-0.018920526
-0.014663636
-0.010901211
-0.0076060899
-0.0047501809
-0.0023048217
-0.00024108344
0.0014699763
0.0028571141
0.0039487524
0.0047728756
0.0053569601
0.0057279229
0.0059120747
0.0059350584
0.0058217636
0.0055962023
0.0052813511
0.0048989584
0.0044693359
0.0040111371
0.0035411476
0.0030740028
0.0026220197
0.002194353
0.0017980682
0.001432816
0.0011068064
0.00078603786
0.00055464506
0.00012336164
0.00034323549
-0.19644155
-0.18173012
-0.16774774
-0.15444257
-0.14148251
-0.12893351
-0.11690879
-0.10544667
-0.094563935
-0.084282166
-0.074619305
-0.065584233
-0.057178858
-0.049400119
-0.042240299
-0.035687228
-0.029724869
-0.024333936
-0.019492414
-0.015176034
-0.011358746
-0.0080131653
-0.0051109754
-0.0026232873
-0.00052094843
0.001225202
0.0026441323
0.0037644693
0.0046143938
0.0052215712
0.0056131005
0.0058154686
0.0058544892
0.0057552179
0.0055418283
0.0052374535
0.0048639928
0.0044419015
0.0039899693
0.0035251103
0.0030620845
0.0026133339
0.0021881411
0.0017937072
0.0014298133
0.0011048015
0.00078477917
0.00055392453
0.0001232623
0.00034274616
-0.20232998
-0.18631347
-0.17186382
-0.15849569
-0.14532951
-0.13251061
-0.12024386
-0.10855546
-0.097448238
-0.086947755
-0.077075748
-0.067841188
-0.059245902
-0.051287272
-0.043957874
-0.037245567
-0.031134231
-0.025604426
-0.020633904
-0.016198092
-0.012270587
-0.0088236126
-0.0058284386
-0.0032557468
-0.001075951
0.00074054153
0.0022231237
0.0034008362
0.004302261
0.0049554515
0.0053878817
0.0056264014
0.0056971768
0.0056256064
0.0054361969
0.0051524048
0.0047964403
0.0043890555
0.0039493201
0.0034944134
0.0030393494
0.0025968233
0.0021763747
0.0017854761
0.0014241634
0.0011010472
0.00078242726
0.00055260941
0.00012310736
0.00034178539
-0.21012318
-0.19222826
-0.17717223
-0.16386352
-0.15050532
-0.13736139
-0.12480271
-0.11283967
-0.10145039
-0.090667636
-0.080521013
-0.071020758
-0.062169249
-0.053965207
-0.046402307
-0.039469012
-0.033149531
-0.027424583
-0.0222719
-0.017666738
-0.013582399
-0.0099907203
-0.0068625159
-0.0041679616
-0.0018769334
4.0715925e-05
0.0016149396
0.002875336
0.0038510363
0.004570631
0.0050621186
0.0053528604
0.0054695219
0.0054379892
0.0052832456
0.005029211
0.0046985439
0.0043124256
0.0038903321
0.0034498273
0.003006293
0.00257279
0.0021592269
0.0017734664
0.0014159101
0.0010955594
0.00077898882
0.00055069107
0.00012291867
0.00034033628
-0.21879398
-0.19860233
-0.18287819
-0.16983843
-0.15640164
-0.14295324
-0.13011437
-0.11788729
-0.10621216
-0.095129574
-0.084682564
-0.074885415
-0.065742185
-0.057254115
-0.049417249
-0.0422217
-0.035652804
-0.029692066
-0.024317707
-0.0195052
-0.01522784
-0.011457276
-0.0081639915
-0.0053177245
-0.0028878327
-0.00084359683
0.00084554337
0.002209811
0.0032789691
0.0040822382
0.0046482409
0.0050049537
0.005179648
0.0051988062
0.0050879973
0.0048717152
0.0045731762
0.0042140985
0.0038144693
0.0033923366
0.0029635451
0.0025416133
0.0021369103
0.0017577866
0.0014051021
0.0010883517
0.00077446768
0.00054815424
0.00012272523
0.00033837488
-0.22733116
-0.20468413
-0.18831025
-0.17576769
-0.16244736
-0.14879222
-0.13573447
-0.12330078
-0.11138538
-0.10002972
-0.08929408
-0.079201764
-0.069760691
-0.06097586
-0.052847181
-0.045367885
-0.03852561
-0.032303586
-0.026681301
-0.021635083
-0.017138723
-0.013164066
-0.0096815546
-0.0066606931
-0.0040704577
-0.0018796366
-5.7099619e-05
0.0014279994
0.0026060781
0.0035070295
0.004160155
0.0045941108
0.0048368452
0.0049155119
0.0048563452
0.0046844943
0.0044238173
0.004096654
0.0037235863
0.003323227
0.0029119598
0.0025038335
0.002109748
0.0017386172
0.001391832
0.001079462
0.00076888096
0.00054498494
0.00012256861
0.00033587018
-0.23494021
-0.21002429
-0.19304851
-0.18113436
-0.1681782
-0.15450301
-0.14132524
-0.12876299
-0.11668337
-0.10511446
-0.094130068
-0.083768238
-0.074044769
-0.064969997
-0.056549122
-0.048780149
-0.041654464
-0.035158161
-0.029272935
-0.023976749
-0.019244515
-0.015048772
-0.0113603
-0.0081486535
-0.0053826323
-0.0030306719
-0.0010611586
0.00055732951
0.0018558493
0.0028649725
0.0036147032
0.0041344122
0.0044527675
0.0045976437
0.0045959938
0.0044736797
0.0042552624
0.0039637662
0.0036204316
0.0032444983
0.0028529462
0.0024604082
0.002078365
0.001716346
0.0013763277
0.0010690087
0.00076229237
0.00054118501
0.00012251488
0.00033278103
-0.24114735
-0.21483478
-0.19725387
-0.18574695
-0.17333134
-0.15990158
-0.14673548
-0.13411133
-0.12193587
-0.11021853
-0.099033871
-0.088436403
-0.07845462
-0.069106274
-0.06040285
-0.052348308
-0.044939009
-0.038164931
-0.032010801
-0.026456914
-0.02147989
-0.01705344
-0.013149059
-0.0097366508
-0.0067850649
-0.0042625504
-0.0021371276
-0.00037687522
0.0010498564
0.0021742961
0.003027146
0.0036384998
0.0040377633
0.0042535561
0.0043135798
0.004244444
0.0040714505
0.0038183507
0.003507088
0.003157573
0.0027874225
0.0024118882
0.0020430603
0.001691112
0.0013586369
0.0010569871
0.00075469011
0.00053670471
0.00012262473
0.00032905302
-0.24370597
-0.21891944
-0.20121915
-0.18944282
-0.17749518
-0.16461824
-0.15169384
-0.13913054
-0.12695945
-0.11519197
-0.10389168
-0.093124946
-0.082935961
-0.073352876
-0.064395005
-0.056073637
-0.048391662
-0.041344447
-0.034921068
-0.029105304
-0.02387649
-0.019210352
-0.015079805
-0.011455666
-0.0083072769
-0.0056030388
-0.0033108533
-0.0013984737
0.00016623006
0.0014150768
0.0023794345
0.0030901131
0.0035772658
0.0038702796
0.003997634
0.003986721
0.0038636233
0.0036528635
0.0033771361
0.0030570727
0.0027109736
0.0023547472
0.0020011171
0.0016609147
0.0013373661
0.0010424839
0.00074552766
0.00053123658
0.00012279907
0.00032466651
-0.23615571
-0.21947782
-0.20384805
-0.19129563
-0.17963981
-0.16767358
-0.15543046
-0.14327248
-0.13137526
-0.11978624
-0.10856149
-0.097776129
-0.087493656
-0.077759082
-0.068605089
-0.060054806
-0.052121716
-0.044810187
-0.038116718
-0.032031119
-0.026537524
-0.021615366
-0.017240312
-0.013385127
-0.010020423
-0.0071153202
-0.0046379983
-0.0025561442
-0.00083730261
0.00055085994
0.0016403583
0.0024627375
0.0030489423
0.0034291843
0.0036327862
0.003687991
0.0036217332
0.0034593796
0.0032244516
0.0029383792
0.0026202198
0.0022866024
0.0019509324
0.0016247376
0.0013119138
0.001025179
0.00073463528
0.0005247874
0.00012291435
0.00031979399
-0.21764602
-0.21375953
-0.2028943
-0.19011895
-0.17845933
-0.1670814
-0.15541646
-0.1436843
-0.13212483
-0.12081739
-0.10981617
-0.099196172
-0.089027295
-0.079361884
-0.070239009
-0.061687755
-0.05372731
-0.046367303
-0.039608929
-0.033446128
-0.027866619
-0.022852904
-0.018383231
-0.0144325
-0.010973062
-0.0079754304
-0.0054088736
-0.0032419125
-0.00144271
2.0628491e-05
0.0011798271
0.0020662629
0.0027108159
0.0031437198
0.0033943943
0.0034912452
0.0034614254
0.0033305655
0.0031224827
0.0028589213
0.0025592672
0.0022405032
0.0019164527
0.0015991238
0.0012930722
0.0010114149
0.00072559703
0.00051846969
0.00012406168
0.00031446647
-0.20399045
-0.20119136
-0.19252129
-0.18080058
-0.17010378
-0.15992723
-0.14946318
-0.13881293
-0.12822199
-0.11778118
-0.10754376
-0.097585232
-0.087980794
-0.078790147
-0.070060214
-0.061828152
-0.054121311
-0.046957307
-0.040344945
-0.034285281
-0.028772597
-0.023795353
-0.019337149
-0.01537763
-0.011893312
-0.0088583185
-0.0062450236
-0.0040245916
-0.002167418
-0.00064348082
0.00057738313
0.0015252563
0.0022299502
0.0027208239
0.00302659
0.0031750947
0.0031930662
0.0031058343
0.002937031
0.0027083188
0.0024390972
0.0021464342
0.0018443555
0.0015450674
0.001253741
0.00098335932
0.00070782506
0.00050565023
0.00012504632
0.00030578666
-0.1913977
-0.18722855
-0.18021065
-0.17061732
-0.16125804
-0.1521926
-0.14285394
-0.13326379
-0.12363026
-0.11405624
-0.10459985
-0.095334192
-0.086335203
-0.077666653
-0.069380614
-0.061519974
-0.054118389
-0.0472001
-0.040780562
-0.034867319
-0.029460853
-0.024555442
-0.020140052
-0.016199208
-0.012713804
-0.0096618476
-0.0070191171
-0.0047597327
-0.0028566335
-0.00128197
-7.423137e-06
0.00099553267
0.0017554016
0.0023004517
0.002658495
0.0028566467
0.0029210588
0.0028766279
0.0027466868
0.0025527196
0.0023140612
0.0020478002
0.0017681221
0.0014873769
0.0012113781
0.00095279434
0.00068844751
0.00049115737
0.00012731037
0.00029467192
-0.17789871
-0.1726443
-0.16663873
-0.15927647
-0.15149626
-0.14358031
-0.13537812
-0.12690175
-0.11828608
-0.10963286
-0.101012
-0.092496558
-0.08416123
-0.076072254
-0.068285966
-0.060850157
-0.053804031
-0.047177915
-0.040993584
-0.035264913
-0.029998568
-0.025194744
-0.020847963
-0.016947879
-0.01348006
-0.01042671
-0.0077673365
-0.0054793348
-0.0035384969
-0.0019194376
-0.00059595306
0.0004586769
0.0012714234
0.0018692612
0.0022789207
0.0025266266
0.0026378148
0.0026368284
0.002546599
0.0023883489
0.002181282
0.0019424579
0.0016861896
0.0014249432
0.0011651907
0.00091921491
0.00066700642
0.00047502834
0.00013004514
0.000281684
-0.16374039
-0.15807919
-0.15277308
-0.14724349
-0.14101972
-0.13428455
-0.12720957
-0.11985407
-0.11228546
-0.10458837
-0.096842298
-0.089121801
-0.081498847
-0.074039914
-0.06680411
-0.059842958
-0.053200148
-0.046911236
-0.041003725
-0.035497444
-0.030405051
-0.025732617
-0.021480306
-0.017643081
-0.014211423
-0.011172023
-0.0085084247
-0.0062016205
-0.0042305702
-0.0025726574
-0.0012040811
-0.00010019377
0.00076419745
0.0014145509
0.001876315
0.0021746447
0.0023341017
0.0023783384
0.0023297685
0.0022092562
0.0020357992
0.0018263694
0.0015953643
0.0013553315
0.0011133895
0.00088139707
0.00064264655
0.00045688781
0.0001326702
0.00026706152
-0.14892598
-0.1436349
-0.13908567
-0.13497884
-0.13014335
-0.12457272
-0.11859094
-0.11231658
-0.10577879
-0.099038705
-0.092177368
-0.085270329
-0.078386225
-0.07158969
-0.064940618
-0.058492709
-0.052292737
-0.046380244
-0.040787455
-0.035539388
-0.030654141
-0.026143305
-0.022012486
-0.018261899
-0.014886991
-0.011879068
-0.0092259062
-0.0069123205
-0.0049206923
-0.0032314355
-0.0018234124
-0.00067430117
0.00023907301
0.00094042796
0.0014537234
0.0018028562
0.0020113441
0.0021019978
0.0020965819
0.0020154908
0.0018774245
0.0016991946
0.0014952248
0.001278101
0.0010555504
0.00083899211
0.00061504162
0.00043661743
0.00013478135
0.00025102233
-0.13386126
-0.12948029
-0.12580137
-0.12279774
-0.11913216
-0.1146555
-0.10971192
-0.10445588
-0.098903988
-0.093096628
-0.08710849
-0.081013361
-0.074876217
-0.068758377
-0.062718567
-0.056810984
-0.051084015
-0.045579824
-0.040334156
-0.035376229
-0.030728795
-0.026408368
-0.02242558
-0.018785635
-0.015488814
-0.012531019
-0.0099043169
-0.0075974737
-0.0055964616
-0.0038849243
-0.0024446021
-0.0012557187
-0.00029733578
0.00045231363
0.0010155013
0.0014146799
0.0016721525
0.0018097326
0.0018483967
0.0018079492
0.0017066891
0.0015611852
0.0013858173
0.0011931624
0.00099149798
0.00079181365
0.00058395697
0.00041414956
0.00013595412
0.00023381361
-0.11914004
-0.11583054
-0.11303978
-0.11091069
-0.10820936
-0.10471793
-0.10073494
-0.096420186
-0.091789931
-0.086870606
-0.081725943
-0.076424407
-0.071026516
-0.065589284
-0.060168587
-0.054817456
-0.049584409
-0.044512837
-0.039640716
-0.035000332
-0.030618141
-0.026514807
-0.022705389
-0.019199639
-0.016002381
-0.013113941
-0.010530614
-0.0082451356
-0.0062471523
-0.0045236667
-0.0030594588
-0.0018374781
-0.00083921192
-4.5035034e-05
0.00056544943
0.0010130713
0.0013187499
0.0015031451
0.0015863021
0.0015873068
0.0015239458
0.0014124521
0.0012670806
0.0011003466
0.00092100005
0.00073963206
0.00054913073
0.00038938186
0.00013574544
0.00021567918
-0.1051543
-0.10283426
-0.1008633
-0.09944759
-0.097539966
-0.094908975
-0.091791482
-0.088331994
-0.084547977
-0.080457402
-0.07611208
-0.071572297
-0.066892883
-0.062125759
-0.057322667
-0.052533983
-0.047806946
-0.043184828
-0.038706545
-0.034406265
-0.030313098
-0.026450961
-0.0228386
-0.019489733
-0.016413287
-0.013613709
-0.01109133
-0.0088427673
-0.0068613311
-0.0051374359
-0.0036590004
-0.0024118319
-0.001379996
-0.00054617337
0.00010798991
0.00060153361
0.00095383156
0.0011842352
0.0013117137
0.0013545017
0.0013297532
0.0012532635
0.001139071
0.00099956826
0.00084388352
0.00068225044
0.00051032689
0.00036219569
0.00013374144
0.00019683688
-0.092086471
-0.090588931
-0.089323132
-0.088494931
-0.087240891
-0.085344664
-0.082988149
-0.080292197
-0.077272848
-0.07394232
-0.07034137
-0.066520753
-0.062528407
-0.058410424
-0.054213476
-0.049984067
-0.045766885
-0.041603842
-0.037533564
-0.033590919
-0.029806591
-0.026206784
-0.022813096
-0.019642515
-0.016707514
-0.014016236
-0.011572748
-0.0093773505
-0.0074269139
-0.005715236
-0.0042334053
-0.0029701636
-0.0019122633
-0.0010448213
-0.00035166973
0.00018429175
0.00058074084
0.00085557277
0.0010265377
0.0011108842
0.0011250092
0.0010841603
0.0010020583
0.00089090302
0.00076009358
0.00061954699
0.00046736639
0.00033247098
0.00012958535
0.00017746502
-0.080014488
-0.079164194
-0.0784724
-0.078119953
-0.077398984
-0.076117937
-0.074415454
-0.072388185
-0.070048308
-0.067403153
-0.064483701
-0.061331031
-0.05798545
-0.054486622
-0.050875471
-0.047193716
-0.04348243
-0.03978105
-0.036126787
-0.032554093
-0.029094145
-0.025774443
-0.022618548
-0.019645942
-0.016871993
-0.014308014
-0.011961401
-0.0098358416
-0.0079315704
-0.0062456567
-0.0047723177
-0.0035032446
-0.0024279352
-0.001534033
-0.00080766835
-0.00023380662
0.00020339958
0.00052025192
0.0007331447
0.00085820725
0.00091095233
0.00090596462
0.00085653929
0.00077460342
0.00066970991
0.00055149052
0.00042014078
0.00030009707
0.00012299532
0.00015769735
-0.068959569
-0.06860058
-0.068355738
-0.068376104
-0.068081027
-0.06730443
-0.066151709
-0.064698129
-0.062951014
-0.060913144
-0.058606926
-0.056064287
-0.053317761
-0.050400254
-0.047346533
-0.044192908
-0.040976022
-0.037731911
-0.034495381
-0.031299442
-0.028174747
-0.025149108
-0.022247135
-0.01948998
-0.016895184
-0.014476618
-0.012244511
-0.01020555
-0.0083630452
-0.0067171402
-0.0052650644
-0.0040014069
-0.0029184136
-0.0020062978
-0.0012535635
-0.00064733896
-0.00017371988
0.00018187974
0.0004343713
0.00059863684
0.0006891792
0.00071980197
0.00070326104
0.00065112236
0.00057296848
0.00047816049
0.00036862794
0.00026498865
0.00011377651
0.00013762467
-0.058906357
-0.058909939
-0.059000342
-0.059301317
-0.05933686
-0.05896434
-0.0582634
-0.057291519
-0.056051375
-0.054541673
-0.052777416
-0.050782259
-0.048581287
-0.046200688
-0.043668948
-0.041016641
-0.038275444
-0.035477292
-0.032653776
-0.029835581
-0.027051907
-0.024329953
-0.021694475
-0.019167454
-0.016767841
-0.014511391
-0.012410589
-0.010474649
-0.0087095823
-0.0071183297
-0.0057009352
-0.0044547636
-0.0033747483
-0.0024536632
-0.0016824169
-0.0010503629
-0.00054562492
-0.00015543443
0.00013352454
0.00033476795
0.00046166757
0.00052712806
0.00054324992
0.00052114162
0.00047028761
0.00039977143
0.00031291051
0.00022710757
0.00010182929
0.00011730435
-0.049818072
-0.050081455
-0.050414079
-0.050916548
-0.051199902
-0.051142574
-0.050804158
-0.050227771
-0.049412263
-0.048353007
-0.047058819
-0.045546163
-0.043833347
-0.041940214
-0.039889145
-0.037704949
-0.035414083
-0.033043942
-0.030622312
-0.028176846
-0.025734506
-0.023321043
-0.020960523
-0.01867493
-0.016483848
-0.014404207
-0.012450117
-0.010632776
-0.0089604493
-0.0074385116
-0.006069548
-0.0048535026
-0.0037878683
-0.0028679113
-0.0020869248
-0.0014365074
-0.00090686223
-0.00048711312
-0.00016563231
6.9625364e-05
0.0002307883
0.00032974824
0.00037783477
0.00038559696
0.00036229211
0.00031669672
0.00025319381
0.00018648605
8.7151678e-05
9.6773801e-05
-0.041644873
-0.042087441
-0.042587422
-0.043226236
-0.043687595
-0.043868782
-0.043813886
-0.043554669
-0.043087164
-0.042404309
-0.041509989
-0.040414671
-0.039130781
-0.037672455
-0.036056412
-0.034301939
-0.032430302
-0.03046418
-0.028427207
-0.02634351
-0.024237206
-0.022131905
-0.020050236
-0.018013433
-0.016040958
-0.014150205
-0.012356249
-0.010671684
-0.0091065148
-0.0076681204
-0.0063612793
-0.0051882452
-0.0041488734
-0.0032407893
-0.0024595945
-0.0017991038
-0.0012516103
-0.00080817186
-0.00045891569
-0.00019335269
-6.9635377e-07
0.00012982632
0.00020866259
0.00024569777
0.00024983412
0.00022949054
0.00018982328
0.00014325015
6.9839313e-05
7.606676e-05
-0.034328799
-0.034888479
-0.035497209
-0.036220601
-0.036802936
-0.037158262
-0.03731884
-0.037307649
-0.037118884
-0.036743946
-0.036183016
-0.035441786
-0.03452781
-0.033450332
-0.032221058
-0.03085422
-0.029366169
-0.027774949
-0.026099936
-0.024361466
-0.022580404
-0.020777697
-0.018973938
-0.017188946
-0.015441387
-0.013748432
-0.012125471
-0.010585881
-0.0091408539
-0.0077992923
-0.006567756
-0.0054504715
-0.0044493914
-0.003564303
-0.0027929792
-0.0021313682
-0.0015738159
-0.0011133171
-0.00074178801
-0.00045035532
-0.00022965372
-7.012161e-05
3.7702872e-05
0.00010293847
0.00013400824
0.00013890579
0.00012329971
9.7640209e-05
5.0082993e-05
5.5228399e-05
-0.027807869
-0.028437882
-0.029110631
-0.029878763
-0.030536841
-0.031013678
-0.031332642
-0.031510057
-0.031539121
-0.031410509
-0.03112181
-0.030675106
-0.03007411
-0.029324074
-0.028432461
-0.027409089
-0.02626586
-0.025016477
-0.023676181
-0.022261471
-0.020789766
-0.019279024
-0.017747359
-0.016212656
-0.014692203
-0.013202343
-0.011758164
-0.010373227
-0.0090593522
-0.0078264461
-0.0066823954
-0.0056330073
-0.0046820066
-0.0038310825
-0.003079982
-0.0024266469
-0.001867388
-0.001397094
-0.0010094659
-0.0006972745
-0.00045262974
-0.00026725546
-0.00013276505
-4.0902891e-05
1.6157585e-05
4.5905375e-05
5.4290808e-05
5.0026816e-05
2.8165797e-05
3.4328406e-05
-0.02201913
-0.022685056
-0.0233886
-0.0241718
-0.024870789
-0.025427235
-0.025857892
-0.026174136
-0.026368842
-0.026432607
-0.02636138
-0.026154673
-0.025813338
-0.025339526
-0.024737284
-0.024012738
-0.023173949
-0.022230733
-0.021194503
-0.020078079
-0.018895435
-0.017661405
-0.016391366
-0.015100907
-0.013805488
-0.01252012
-0.011259046
-0.010035462
-0.0088612684
-0.0077468598
-0.0067009698
-0.0057305575
-0.0048407467
-0.0040348152
-0.0033142308
-0.0026787331
-0.002126457
-0.0016540932
-0.0012570808
-0.00092982509
-0.00066593502
-0.00045846944
-0.00030018835
-0.00018378418
-0.00010213362
-4.8336738e-05
-1.6363963e-05
9.195097e-07
4.4587046e-06
1.3470064e-05
-0.016900795
-0.017578027
-0.018288464
-0.019065471
-0.019779402
-0.020382991
-0.020888112
-0.021302523
-0.021619259
-0.021829324
-0.02192779
-0.021912472
-0.021782225
-0.021536932
-0.021178024
-0.020708686
-0.020133803
-0.019459868
-0.01869491
-0.017848378
-0.016930982
-0.015954475
-0.014931416
-0.013874892
-0.012798246
-0.011714772
-0.010637433
-0.0095785838
-0.0085497082
-0.0075611977
-0.0066221572
-0.0057402533
-0.0049216071
-0.0041707315
-0.0034905146
-0.0028822486
-0.0023457001
-0.0018792217
-0.001479897
-0.0011437163
-0.00086577506
-0.00064048731
-0.00046180712
-0.00032344265
-0.0002190658
-0.00014244843
-8.7658195e-05
-4.9033094e-05
-2.0585152e-05
-7.2043428e-06
-0.012393881
-0.013065462
-0.013766285
-0.014522607
-0.015232848
-0.015859161
-0.01640984
-0.016890022
-0.01729323
-0.017611194
-0.017838676
-0.017972498
-0.018010232
-0.017950215
-0.017791993
-0.017536525
-0.01718619
-0.016744767
-0.016217418
-0.015610648
-0.01493221
-0.014190971
-0.013396743
-0.012560079
-0.011692049
-0.010803997
-0.0099072889
-0.0090130581
-0.0081319592
-0.007273939
-0.0064480295
-0.0056621721
-0.0049230756
-0.0042361131
-0.0036052608
-0.0030330772
-0.0025207251
-0.002068032
-0.0016735885
-0.0013348771
-0.0010484291
-0.00080999979
-0.00061475622
-0.0004574673
-0.00033267275
-0.00023489032
-0.00015843652
-9.905386e-05
-4.6439736e-05
-2.7512286e-05
-0.0084433039
-0.0090981505
-0.009778613
-0.010505107
-0.011198964
-0.011830284
-0.012404734
-0.012925575
-0.013386993
-0.01378163
-0.014104339
-0.014351467
-0.014519872
-0.014606935
-0.014610938
-0.014531252
-0.01436838
-0.014123984
-0.013800908
-0.013403192
-0.01293603
-0.012405709
-0.011819495
-0.011185503
-0.010512528
-0.0098098645
-0.0090870913
-0.0083538615
-0.0076196794
-0.0068936855
-0.006184452
-0.0054997973
-0.0048466257
-0.004230796
-0.0036570253
-0.003128828
-0.0026484932
-0.0022170995
-0.0018345651
-0.0014997316
-0.001210476
-0.00096384494
-0.0007562049
-0.00058340339
-0.00044089667
-0.00032400769
-0.00022742842
-0.00014825953
-7.2519706e-05
-4.7233366e-05
-0.0049987666
-0.0056301974
-0.0062839207
-0.0069755298
-0.007644978
-0.0082690052
-0.0088513542
-0.0093939401
-0.0098916935
-0.010338239
-0.010728769
-0.011059532
-0.011327082
-0.011528306
-0.011660719
-0.011722641
-0.011713253
-0.011632646
-0.011481877
-0.011263011
-0.010979125
-0.010634294
-0.010233532
-0.0097827217
-0.0092885017
-0.0087581357
-0.0081993569
-0.0076201955
-0.0070287946
-0.0064332204
-0.0058412749
-0.0052603154
-0.0046970896
-0.0041575903
-0.0036469355
-0.0031692779
-0.002727746
-0.0023244178
-0.0019603289
-0.0016355108
-0.0013490594
-0.0010992272
-0.00088353263
-0.00069888924
-0.00054169118
-0.00040810537
-0.00029330004
-0.00019569614
-9.820032e-05
-6.6115688e-05
-0.0020154656
-0.0026201603
-0.0032441157
-0.0038989457
-0.0045396547
-0.0051484758
-0.0057277367
-0.0062783911
-0.0067961125
-0.0072754974
-0.007712221
-0.008102667
-0.0084433758
-0.008731068
-0.0089628769
-0.0091364934
-0.0092502322
-0.0093030905
-0.0092948154
-0.0092259624
-0.0090979324
-0.0089129853
-0.0086742317
-0.0083855993
-0.0080517757
-0.0076781252
-0.0072705825
-0.006835527
-0.0063796391
-0.005909746
-0.0054326596
-0.0049550146
-0.0044831111
-0.0040227681
-0.0035791932
-0.0031568726
-0.0027594863
-0.0023898498
-0.0020498844
-0.0017406162
-0.0014622024
-0.0012139825
-0.00099454649
-0.0008018297
-0.00063315535
-0.00048554819
-0.00035472582
-0.00024038848
-0.00012284458
-8.3886035e-05
0.00054633691
-3.0596279e-05
-0.00062409154
-0.001242453
-0.0018527715
-0.0024417851
-0.0030107798
-0.0035600178
-0.004085866
-0.004583828
-0.0050501151
-0.0054813852
-0.0058743452
-0.0062257702
-0.0065326794
-0.0067924533
-0.0070028965
-0.0071622974
-0.0072694976
-0.007323957
-0.007325806
-0.0072758815
-0.0071757469
-0.007027693
-0.0068347193
-0.0066004931
-0.0063292873
-0.0060258975
-0.0056955414
-0.0053437409
-0.0049761939
-0.0045986374
-0.004216708
-0.0038358054
-0.0034609626
-0.0030967279
-0.0027470647
-0.0024152694
-0.0021039137
-0.0018148086
-0.0015489947
-0.0013067534
-0.0010876375
-0.00089052933
-0.00071364257
-0.00055484613
-0.0004104511
-0.00028138305
-0.00014582444
-0.0001002562
0.0027169901
0.0021667858
0.0016024333
0.0010183004
0.00043769619
-0.00012974995
-0.00068455348
-0.0012264786
-0.0017525072
-0.0022589497
-0.0027425474
-0.0032002946
-0.0036291613
-0.0040261084
-0.0043882169
-0.0047127774
-0.0049973456
-0.0052397977
-0.0054383947
-0.005591847
-0.0056993716
-0.0057607402
-0.0057763158
-0.0057470777
-0.0056746301
-0.0055611943
-0.0054095828
-0.0052231539
-0.0050057493
-0.0047616139
-0.0044953016
-0.0042115683
-0.0039152571
-0.0036111783
-0.0033039902
-0.0029980832
-0.0026974726
-0.0024057042
-0.0021257747
-0.0018600712
-0.0016103285
-0.0013776083
-0.0011622928
-0.00096410958
-0.00078209358
-0.00061491449
-0.00045948933
-0.00031789278
-0.00016661766
-0.00011497244
0.0045287312
0.0040033828
0.0034658922
0.0029128696
0.0023600788
0.0018142393
0.0012754018
0.00074416594
0.00022302915
-0.00028500811
-0.00077717303
-0.0012508042
-0.0017031692
-0.0021314772
-0.0025329686
-0.002904982
-0.0032449999
-0.0035506968
-0.0038199956
-0.0040511266
-0.0042426839
-0.0043936768
-0.0045035763
-0.0045723527
-0.004600504
-0.0045890707
-0.0045396377
-0.0044543195
-0.0043357303
-0.0041869377
-0.0040114002
-0.0038128914
-0.0035954118
-0.003363091
-0.0031200839
-0.0028704648
-0.0026181221
-0.0023666584
-0.0021192994
-0.0018788144
-0.00164745
-0.0014268813
-0.0012181745
-0.0010217814
-0.00083746556
-0.00066462736
-0.00050077283
-0.00034902199
-0.00018458677
-0.00012767884
0.0059813441
0.0054770821
0.0049624885
0.004435759
0.0039069199
0.0033804865
0.0028569282
0.0023371003
0.0018230771
0.0013172997
0.00082212788
0.00033990894
-0.00012691169
-0.00057580077
-0.001004197
-0.0014095586
-0.0017894001
-0.002141333
-0.0024631129
-0.0027526913
-0.0030082675
-0.0032283395
-0.0034117527
-0.0035577451
-0.003665986
-0.0037366065
-0.0037702204
-0.0037679326
-0.0037313343
-0.003662484
-0.0035638738
-0.0034383805
-0.0032892037
-0.0031197905
-0.0029337507
-0.002734764
-0.0025264822
-0.002312431
-0.0020959135
-0.001879919
-0.0016670409
-0.0014594058
-0.0012586117
-0.0010656967
-0.00088103512
-0.00070465681
-0.00053460377
-0.00037489872
-0.00019983911
-0.00013841053
0.007124289
0.0066379038