/*--------------------------------*- C++ -*----------------------------------*\
  =========                 |
  \\      /  F ield         | OpenFOAM: The Open Source CFD Toolbox
   \\    /   O peration     | Website:  https://openfoam.org
    \\  /    A nd           | Version:  6
     \\/     M anipulation  |
\*---------------------------------------------------------------------------*/
FoamFile
{
    version     2.0;
    format      ascii;
    class       volScalarField;
    location    "23";
    object      pPrime2Mean;
}
// * * * * * * * * * * * * * * * * * * * * * * * * * * * * * * * * * * * * * //

dimensions      [0 4 -4 0 0 0 0];

internalField   nonuniform List<scalar> 
9200
(
0.47751332
0.39486916
0.32496373
0.2795888
0.24349317
0.21316984
0.18707983
0.16444383
0.14474369
0.12756197
0.11255066
0.09941611
0.087908693
0.077815298
0.068953748
0.061168874
0.054330298
0.048330937
0.04310038
0.038555764
0.38428169
0.31684953
0.26052964
0.22366546
0.19423201
0.16946869
0.14816237
0.12969803
0.11366032
0.099710924
0.087564542
0.076977756
0.067741587
0.059676128
0.052626584
0.046460362
0.041065108
0.036346357
0.032223309
0.028580324
0.29691937
0.24409268
0.20051453
0.17166009
0.14849039
0.12894835
0.11213091
0.097579225
0.084976424
0.074058903
0.064599494
0.056400508
0.049289463
0.043116087
0.037750099
0.033079384
0.029008412
0.025455736
0.022342985
0.019564061
0.21787804
0.17858911
0.14652782
0.12495658
0.10748329
0.092687796
0.079951628
0.068959065
0.059483325
0.051327658
0.044315917
0.038290174
0.033109844
0.028651158
0.024806579
0.021483879
0.018604843
0.016102866
0.013912863
0.011955666
0.14937203
0.12213214
0.10005319
0.084842697
0.072350324
0.061706947
0.052544268
0.04467175
0.037940447
0.032209841
0.027346069
0.023224362
0.019731522
0.016767568
0.014246341
0.012095085
0.010253256
0.0086703967
0.0072990058
0.0060879034
0.093352968
0.076286494
0.062408525
0.052471075
0.044117096
0.036928186
0.030743582
0.025475244
0.021036439
0.017330382
0.014256094
0.01171544
0.0096184169
0.0078862301
0.0064524006
0.005262361
0.0042721346
0.0034464031
0.0027541527
0.0021660877
0.051448818
0.042347115
0.03471275
0.028829565
0.023667709
0.019149601
0.015272485
0.012024295
0.0093627354
0.007221643
0.0055237689
0.004191555
0.0031541669
0.0023510463
0.0017328349
0.0012606254
0.00090440169
0.00064125687
0.00045306882
0.00032526461
0.024918336
0.021308983
0.017860059
0.014716676
0.011720491
0.0090204999
0.0067175367
0.0048467956
0.003392023
0.002305039
0.0015238851
0.00098587021
0.00063507238
0.00042547111
0.00032123166
0.00029548397
0.00032856739
0.00040641826
0.00051946892
0.00066163815
0.014614859
0.013840751
0.012487151
0.010707445
0.008797254
0.0070156911
0.0055083539
0.0043278709
0.0034663761
0.0028825287
0.0025223941
0.0023328322
0.0022682055
0.0022925143
0.0023789233
0.002508172
0.0026667726
0.0028455806
0.0030391808
0.0032448515
0.020943158
0.020255343
0.018925497
0.017105951
0.015178292
0.013391765
0.011875514
0.010670892
0.009762889
0.0091077394
0.0086531209
0.0083500285
0.008157823
0.0080451524
0.0079889223
0.0079725621
0.0079843329
0.0080160352
0.0080622354
0.0081192382
1.1561507
0.97192905
0.80295282
0.69618841
0.61148864
0.54046118
0.47935457
0.42614418
0.37957723
0.33866867
0.30261341
0.27074505
0.2425056
0.21742371
0.19509843
0.17518691
0.15739468
0.1414588
0.1271331
0.11427668
1.1411933
0.95840235
0.79138418
0.6858605
0.60223456
0.532124
0.47181073
0.41930394
0.37336569
0.33302071
0.29747178
0.26605907
0.23823027
0.21351892
0.19152839
0.17191969
0.15440215
0.13871659
0.12461532
0.11196152
1.1106975
0.93162264
0.76883041
0.66596
0.58453151
0.51627884
0.45756439
0.40646065
0.36176297
0.32252012
0.28795389
0.25741994
0.23037884
0.20637505
0.1850213
0.16598683
0.14898869
0.13377505
0.12009913
0.10782626
1.0652028
0.89224249
0.73594292
0.637104
0.55893882
0.4934329
0.43708058
0.38804368
0.34516732
0.30753759
0.27440599
0.24515222
0.21925664
0.19628034
0.1758501
0.15764723
0.1413996
0.12686602
0.11380451
0.10208008
1.0059574
0.84138138
0.69367431
0.60014473
0.52622195
0.4642775
0.41098841
0.36462879
0.32410802
0.28856139
0.25727983
0.2296749
0.20525319
0.18359756
0.16435312
0.14721653
0.13192892
0.11826215
0.10598488
0.094961125
0.93465603
0.78052143
0.64325978
0.55617081
0.48735163
0.42968362
0.38007329
0.33692688
0.29923064
0.26617936
0.23711182
0.21147839
0.18881754
0.16873858
0.15090865
0.13504271
0.12089689
0.10825746
0.096909846
0.08672011
0.85335416
0.71143867
0.58616036
0.50645759
0.44345895
0.39066132
0.34524079
0.30575188
0.27126832
0.24105304
0.21449975
0.19110356
0.17043979
0.15214837
0.13592191
0.12149634
0.10864446
0.097167188
0.086871235
0.07763041
0.7643915
0.63613922
0.52401527
0.45242707
0.39579917
0.3483268
0.30748705
0.27199458
0.24101891
0.21389793
0.190086
0.16912782
0.15063976
0.13429602
0.11981793
0.10696528
0.095529866
0.085328237
0.076191633
0.068006495
0.6703084
0.55678709
0.45858672
0.39560144
0.3457125
0.30386951
0.26787113
0.23659925
0.20932515
0.18546672
0.16454317
0.14615244
0.12995513
0.11566264
0.10302785
0.091837469
0.081905854
0.073069022
0.06518861
0.058162908
0.57375413
0.47564542
0.3917008
0.33754207
0.2945655
0.2584978
0.22746595
0.2005208
0.17703858
0.15651988
0.13855104
0.12278504
0.10892837
0.096731194
0.085979865
0.076491006
0.068107295
0.060695464
0.054160525
0.048400567
0.10067841
0.087070763
0.075482308
0.065382201
0.056717851
0.049266488
0.042836765
0.037264535
0.032415876
0.028181865
0.024474054
0.021220971
0.018364419
0.015856188
0.013655615
0.011727825
0.010042432
0.008572614
0.0072944578
0.0061864931
0.0052293532
0.004405523
0.0036991441
0.0030958603
0.002582692
0.0021479304
0.0017810461
0.0014726066
0.0012142046
0.00099839026
0.00081861033
0.00066914884
0.00054506986
0.00044215751
0.00035685437
0.00028619351
0.00022772835
0.00017945719
0.00013975004
0.00010727514
8.0933795e-05
5.9801779e-05
4.3079045e-05
3.0064293e-05
2.0113646e-05
1.2701323e-05
7.2729996e-06
3.6244968e-06
1.1592611e-06
2.631986e-07
0.098755449
0.085607574
0.074356771
0.064517415
0.056065273
0.048783261
0.042483278
0.037007903
0.032230424
0.028047922
0.024377026
0.021150402
0.018312931
0.015818564
0.013628132
0.01170779
0.010027868
0.0085620508
0.0072867927
0.0061808978
0.0052252086
0.0044023714
0.0036966535
0.0030937963
0.0025808952
0.0021462987
0.0017795198
0.0014711566
0.0012128227
0.00099708112
0.0008173856
0.00066802229
0.00054405406
0.00044126161
0.00035608286
0.00028554581
0.00022719914
0.00017903705
0.0001394265
0.00010703383
8.0759604e-05
5.9680087e-05
4.29967e-05
3.0010355e-05
2.0079619e-05
1.2680914e-05
7.2618814e-06
3.6191783e-06
1.157758e-06
2.6261482e-07
0.095353809
0.083038758
0.072402098
0.063042915
0.054974376
0.047993356
0.041919996
0.036610339
0.031951982
0.027853849
0.024242122
0.021056951
0.018248635
0.015774853
0.013598968
0.011688866
0.010016075
0.0085551207
0.0072830668
0.0061791695
0.005224613
0.0044023039
0.0036967091
0.0030937223
0.0025805531
0.0021456336
0.0017785357
0.0014698973
0.001211355
0.00099548277
0.00081573526
0.00066639245
0.00054250607
0.00043984283
0.0003548255
0.00028446735
0.00022630369
0.00017831766
0.00013886768
0.00010661444
8.0455563e-05
5.9467021e-05
4.2852164e-05
2.9915423e-05
2.0019528e-05
1.2644752e-05
7.242103e-06
3.6097223e-06
1.1551067e-06
2.6150358e-07
0.090650856
0.079493949
0.069731341
0.061065731
0.053537658
0.046969145
0.041199775
0.036108
0.031603634
0.027613549
0.024077413
0.020945232
0.018174214
0.015726717
0.013569274
0.011671958
0.010007833
0.0085525344
0.007283943
0.0061819305
0.0052281494
0.0044058645
0.0036998163
0.0030961053
0.0025820941
0.0021463253
0.0017784467
0.0014691442
0.0012100804
0.00099383811
0.00081386752
0.00066443455
0.00054057035
0.00043801756
0.0003531737
0.00028302779
0.00022509334
0.00017733532
0.0001380981
0.00010603265
8.0031051e-05
5.9167804e-05
4.2648103e-05
2.9780734e-05
1.9933866e-05
1.2592977e-05
7.213673e-06
3.596079e-06
1.1512867e-06
2.5985266e-07
0.084837869
0.075116973
0.066470617
0.058702273
0.051852678
0.045782434
0.040370454
0.035530212
0.031201777
0.027335318
0.023886692
0.020816815
0.018090275
0.015674448
0.013539322
0.011657422
0.010003603
0.0085548364
0.0072900206
0.0061898066
0.005236448
0.0044136717
0.0037065699
0.0031015083
0.0025860448
0.0021488605
0.0017796968
0.0014692974
0.0012093546
0.00099245867
0.00081205065
0.00066237529
0.00053843457
0.00043593759
0.00035124708
0.00028131867
0.00022363581
0.00017613823
0.00013715047
0.00010530946
7.9498733e-05
5.8789503e-05
4.2388135e-05
2.9607937e-05
1.9823285e-05
1.2525772e-05
7.1766124e-06
3.5782133e-06
1.1462995e-06
2.5764856e-07
0.078100221
0.070053774
0.062746362
0.056056802
0.049995572
0.044479537
0.039454839
0.034885581
0.030747959
0.027017828
0.023667957
0.020670004
0.017995728
0.015617542
0.013509082
0.011645574
0.010003929
0.0085627127
0.0073020591
0.0062035839
0.0052502892
0.004426479
0.0037176845
0.0031105995
0.0025930223
0.0021538034
0.0017827968
0.0014708146
0.0012095826
0.00099169817
0.00081058895
0.0006604721
0.00053631236
0.00043377649
0.00034918327
0.00027944617
0.00022201045
0.00017478353
0.0001360642
0.00010447072
7.8874548e-05
5.8341306e-05
4.2077142e-05
2.9399396e-05
1.9688775e-05
1.2443453e-05
7.1309642e-06
3.5560498e-06
1.1401171e-06
2.5487127e-07
0.07063327
0.064462611
0.058681847
0.053200442
0.047993147
0.043059641
0.038439527
0.034159121
0.030231105
0.026654868
0.023418856
0.020505044
0.017892364
0.01555858
0.013481422
0.011639272
0.010011504
0.0085786102
0.0073222341
0.0062251686
0.0052713279
0.0044457146
0.0037343883
0.0031244339
0.0026039327
0.0021619316
0.0017884138
0.0014742672
0.0012112526
0.0009919714
0.00080983225
0.00065901698
0.00053444432
0.0004317293
0.00034713742
0.00027753091
0.00022030857
0.00017333816
0.00013488657
0.00010354832
7.8178949e-05
5.7835535e-05
4.1722041e-05
2.9158657e-05
1.9531971e-05
1.2346638e-05
7.0769049e-06
3.5295757e-06
1.1327475e-06
2.5149855e-07
0.062676905
0.058528559
0.054376394
0.050129318
0.045786444
0.041457842
0.03727472
0.0333197
0.029636049
0.026242529
0.023142143
0.020328017
0.017787544
0.015505023
0.01346328
0.011644656
0.01003159
0.0086069447
0.0073541991
0.0062575553
0.0053020038
0.0044733607
0.0037582905
0.00314432
0.0026198431
0.0021741195
0.0017972674
0.0014802497
0.0012148568
0.00099368613
0.00081011752
0.00065828677
0.0005330557
0.00042997684
0.00034525208
0.00027568282
0.00021861261
0.00017186193
0.00013365918
0.00010256981
7.7429051e-05
5.7282059e-05
4.1328014e-05
2.8888138e-05
1.9353806e-05
1.2235545e-05
7.0144045e-06
3.4986437e-06
1.1241543e-06
2.4749663e-07
0.054458398
0.052347519
0.049743993
0.04662598
0.043138735
0.039481643
0.035821244
0.032269306
0.028893236
0.025730853
0.02280141
0.020111905
0.017660893
0.015441333
0.013442726
0.011652534
0.010057108
0.008642291
0.0073938272
0.0062976388
0.0053400139
0.0045077393
0.0037881968
0.0031694321
0.0026402052
0.0021900231
0.0018091599
0.0014886655
0.0012203653
0.00099685253
0.00081147549
0.0006583191
0.00053218203
0.00042854736
0.00034354592
0.00027391075
0.00021692284
0.00017034843
0.00013237126
0.00010152225
7.6611755e-05
5.6669159e-05
4.0885709e-05
2.858117e-05
1.9150082e-05
1.2107834e-05
6.9423768e-06
3.4627973e-06
1.114281e-06
2.4286502e-07
0.046247097
0.045742918
0.044371948
0.042297165
0.039746434
0.036902075
0.033903231
0.030869536
0.027891759
0.025030808
0.022325845
0.019801002
0.017469005
0.015334005
0.013394145
0.011643519
0.010073543
0.0086739079
0.0074332788
0.0063397876
0.0053813888
0.0045461173
0.0038222794
0.0031985951
0.0026643043
0.0022092442
0.001823904
0.0014994612
0.0012278031
0.0010015364
0.00081398738
0.00065919477
0.00053189478
0.00042749888
0.00034206274
0.00027224554
0.00021525943
0.00016880988
0.00013102954
0.00010040895
7.5728506e-05
5.5997422e-05
4.0395442e-05
2.8238015e-05
1.8921047e-05
1.1963677e-05
6.8608564e-06
3.4221121e-06
1.1030214e-06
2.3775665e-07
0.037255304
0.037782833
0.037426772
0.036332034
0.034749897
0.032808559
0.030601886
0.028236886
0.025811522
0.023399705
0.021054994
0.018816058
0.016709163
0.014750262
0.012947404
0.011302836
0.0098145713
0.0084775883
0.0072847527
0.0062275212
0.0052964706
0.0044816989
0.0037731313
0.0031607548
0.0026347967
0.0021858605
0.0018050258
0.0014839212
0.0012147746
0.00099044564
0.0008044445
0.00065093918
0.0005247529
0.00042135184
0.00033682241
0.00026783792
0.00021161387
0.00016585333
0.00012868441
9.859372e-05
7.4359955e-05
5.4993901e-05
3.9680806e-05
2.774496e-05
1.8594144e-05
1.1757994e-05
6.7443644e-06
3.3638268e-06
1.0865449e-06
2.32083e-07
0.028853013
0.029834783
0.030067976
0.029656164
0.028805789
0.027605806
0.026111211
0.024404733
0.022572645
0.020684435
0.018794204
0.016944653
0.015168009
0.013486928
0.011916202
0.010464469
0.0091355745
0.0079296814
0.006844185
0.0058744534
0.0050144133
0.0042570126
0.0035945884
0.0030191595
0.0025226573
0.0020971077
0.0017347722
0.0014282563
0.0011705908
0.00095529097
0.00077639813
0.00062850653
0.00050677744
0.00040694128
0.00032528761
0.00025864297
0.00020433627
0.00016015333
0.00012428225
9.5253769e-05
7.1880276e-05
5.3199769e-05
3.8421694e-05
2.6892335e-05
1.8042698e-05
1.1420588e-05
6.5592461e-06
3.2719544e-06
1.0613135e-06
2.2297166e-07
0.021647683
0.022884198
0.023527661
0.023645901
0.023369718
0.022762685
0.021858743
0.02071751
0.019409413
0.017995752
0.016527269
0.015046712
0.013588838
0.01218031
0.01084061
0.0095832533
0.0084168326
0.0073459443
0.0063720095
0.0054939816
0.0047089357
0.0040125555
0.0033995355
0.0028639107
0.0023993262
0.0019992553
0.0016571751
0.0013667057
0.0011217188
0.00091642246
0.00074542349
0.00060377373
0.00048700036
0.00039112233
0.00031265317
0.00024859014
0.00019639006
0.00015393315
0.00011947678
9.1602984e-05
6.916331e-05
5.122709e-05
3.7031056e-05
2.5945685e-05
1.742698e-05
1.104172e-05
6.3503977e-06
3.1676095e-06
1.0328939e-06
2.1199298e-07
0.015585725
0.016929401
0.017821438
0.01830864
0.018453898
0.018298831
0.017865953
0.017194945
0.01633805
0.015345377
0.014261309
0.013125349
0.011971622
0.010828123
0.0097168933
0.0086546591
0.0076535197
0.0067216074
0.0058637416
0.0050820383
0.004376449
0.0037452302
0.0031853468
0.0026928155
0.0022629952
0.0018908286
0.0015710428
0.0012983132
0.0010673963
0.00087323487
0.00071104171
0.0005763628
0.00046512383
0.00037366076
0.00029873534
0.00023753592
0.00018766388
0.00014710723
0.00011420313
8.7593013e-05
6.6173801e-05
4.9050823e-05
3.5491627e-05
2.4893511e-05
1.673955e-05
1.061693e-05
6.1150121e-06
3.0498696e-06
1.0004759e-06
1.9962213e-07
0.010701685
0.012007697
0.012998307
0.013698627
0.014121159
0.014285938
0.014206409
0.013906387
0.013420641
0.012786602
0.012040265
0.011215509
0.010343252
0.0094504095
0.0085594861
0.0076886974
0.0068522654
0.0060607935
0.0053217047
0.0046397005
0.0040172043
0.0034547721
0.0029514641
0.0025051759
0.0021129281
0.0017711163
0.0014757251
0.0012225074
0.0010071346
0.00082531946
0.00067291617
0.00054599957
0.00044092609
0.00035437774
0.00028338998
0.00022536394
0.00017806364
0.00013959952
0.00010840008
8.3175067e-05
6.2873512e-05
4.6641788e-05
3.3781929e-05
2.3720795e-05
1.5970485e-05
1.0140265e-05
5.8497107e-06
2.9173851e-06
9.6342717e-07
1.8611676e-07
0.006950587
0.0081069881
0.0090710346
0.0098478567
0.010418459
0.010783675
0.01094736
0.010920636
0.010723272
0.010380106
0.0099177399
0.0093629924
0.0087417859
0.0080780291
0.0073928717
0.0067043983
0.0060275763
0.005374351
0.0047538533
0.0041726806
0.0036352107
0.0031439215
0.0026997021
0.0023021461
0.0019498198
0.001640504
0.0013714068
0.0011393492
0.0009409243
0.00077263151
0.00063098921
0.00051262643
0.00041435626
0.00033323166
0.00026658474
0.00021204983
0.00016757116
0.00013139625
0.00010205681
7.8340228e-05
5.9254804e-05
4.3993313e-05
3.189619e-05
2.2422715e-05
1.5115974e-05
9.6089952e-06
5.5525957e-06
2.7692884e-06
9.2115368e-07
1.7170287e-07
0.004217282
0.0051569068
0.0060044301
0.006750703
0.0073615532
0.0078239527
0.0081325009
0.0082880887
0.0082984739
0.0081771983
0.0079414754
0.0076104894
0.0072041651
0.0067420868
0.0062426195
0.0057223339
0.0051956809
0.0046748469
0.0041697464
0.0036881212
0.0032357088
0.0028164506
0.0024327207
0.0020855593
0.0017749017
0.0014997938
0.0012585918
0.0010491411
0.0008689364
0.00071526009
0.0005853017
0.00047625824
0.00038541695
0.00031022078
0.00024831751
0.00019759262
0.00015618673
0.00012249848
9.517451e-05
7.3089302e-05
5.5317777e-05
4.110474e-05
2.9833108e-05
2.0997623e-05
1.4174276e-05
9.0216868e-06
5.2224827e-06
2.605084e-06
8.7318629e-07
1.5663907e-07
0.0023508394
0.0030466004
0.0037243569
0.0043671117
0.0049370096
0.0054134245
0.0057839122
0.006041666
0.0061854767
0.0062196575
0.0061529416
0.0059971007
0.0057657976
0.0054736129
0.0051351864
0.0047645286
0.0043745277
0.0039766272
0.0035806455
0.0031947116
0.0028252919
0.00247728
0.0021541308
0.0018580204
0.0015900195
0.0013502698
0.0011381561
0.0009524692
0.00079155562
0.00065345337
0.00053601176
0.00043699551
0.00035417293
0.00028538829
0.00022861862
0.00018201484
0.00014392781
0.00011291991
8.7763777e-05
6.7430136e-05
5.1067845e-05
3.7979406e-05
2.7594367e-05
1.9446023e-05
1.3145163e-05
8.3778205e-06
4.8587145e-06
2.4244349e-06
8.1906158e-07
1.4115005e-07
0.0011897868
0.0016446454
0.0021310969
0.0026294578
0.0031048323
0.0035343515
0.0039017909
0.0041954839
0.0044081889
0.0045374088
0.0045849696
0.0045561178
0.0044586253
0.0043019958
0.00409672
0.0038536061
0.0035832253
0.0032954927
0.002999368
0.0027026677
0.002411969
0.0021325905
0.0018686309
0.0016230486
0.0013977716
0.0011938238
0.0010114592
0.00085029831
0.00070945943
0.00058768332
0.00048344701
0.00039506608
0.00032078406
0.00025884816
0.00020757107
0.00016537829
0.00013084121
0.00010269635
7.9851884e-05
6.1383174e-05
4.6519901e-05
3.4627708e-05
2.5186824e-05
1.7772102e-05
1.2030931e-05
7.678509e-06
4.4616349e-06
2.2274905e-06
7.5854461e-07
1.2545829e-07
0.00057961874
0.00081628408
0.0011136514
0.0014527783
0.0018048038
0.00214829
0.002466364
0.0027452797
0.0029744632
0.0031470373
0.0032598309
0.0033129183
0.0033090483
0.0032530808
0.0031514192
0.0030114429
0.002840989
0.0026479113
0.0024397282
0.0022233574
0.0020049335
0.0017896987
0.001581957
0.0013850781
0.0012015408
0.0010330045
0.00088039934
0.0007440278
0.0006236706
0.00051869265
0.00042814479
0.00035085868
0.00028553263
0.00023080699
0.00018532767
0.0001477973
0.00011701334
9.1893442e-05
7.1488653e-05
5.4985885e-05
4.1701634e-05
3.1069569e-05
2.2624297e-05
1.5984986e-05
1.0837233e-05
6.9269574e-06
4.032803e-06
2.014896e-06
6.9157888e-07
1.0974316e-07
0.0003836077
0.0004353691
0.00056127338
0.00074497558
0.00096450835
0.0012018677
0.0014418022
0.0016707561
0.001877094
0.002051746
0.0021884748
0.0022837501
0.0023364766
0.0023476771
0.0023201237
0.0022579238
0.0021660983
0.0020501877
0.0019159045
0.0017688433
0.0016142508
0.0014568584
0.0013007711
0.0011494084
0.0010054864
0.00087103652
0.00074744856
0.00063553401
0.00053560107
0.00044753657
0.00037088992
0.00030495557
0.00024885073
0.00020158626
0.00016212877
0.00012945261
0.00010258083
8.0614763e-05
6.2752532e-05
4.8297298e-05
3.6656893e-05
2.7336908e-05
1.9929375e-05
1.4100053e-05
9.5740267e-06
6.1291574e-06
3.5754697e-06
1.7881306e-06
6.184904e-07
9.4187364e-08
0.00048723829
0.00039086927
0.00037114155
0.00041496434
0.00050687879
0.00063302725
0.0007810179
0.00093899942
0.0010959536
0.0012423748
0.0013706655
0.0014752246
0.0015524038
0.0016004031
0.0016190928
0.0016097647
0.0015748399
0.0015175642
0.0014417128
0.0013513198
0.0012504431
0.0011429704
0.0010324712
0.00092209123
0.00081448856
0.00071180399
0.00061566195
0.00052719463
0.00044708428
0.00037561779
0.00031274893
0.0002581641
0.0002113479
0.00017164587
0.00013832163
0.00011060691
8.7742735e-05
6.9011262e-05
5.3757754e-05
4.1403362e-05
3.1449651e-05
2.3476543e-05
1.71355e-05
1.2140389e-05
8.2565339e-06
5.2944718e-06
3.0948752e-06
1.5496068e-06
5.3997742e-07
7.8957055e-08
0.00079834989
0.00058939191
0.0004526838
0.00037828542
0.00035624684
0.00037673484
0.00043059649
0.00050844448
0.00060091391
0.00069929521
0.00079595734
0.00088454234
0.0009600648
0.0010189587
0.0010590539
0.001079476
0.001080486
0.0010632835
0.0010297919
0.00098244036
0.00092395634
0.00085717867
0.00078489811
0.00070973005
0.00063401918
0.00055977619
0.00048864249
0.00042188047
0.00036038398
0.00030470526
0.00025509349
0.00021154121
0.00017383471
0.00014160534
0.00011437877
9.1620148e-05
7.2773024e-05
5.7291118e-05
4.4662001e-05
3.4422794e-05
2.61684e-05
1.9553441e-05
1.4289338e-05
1.0138488e-05
6.9064433e-06
4.4364687e-06
2.5987912e-06
1.3030248e-06
4.572907e-07
6.4247448e-08
0.0012450412
0.00095514763
0.00072934772
0.00056037421
0.00044257289
0.00036956557
0.00033524653
0.00033285505
0.00035514359
0.00039490993
0.00044537957
0.00050042524
0.00055472996
0.00060391998
0.00064464413
0.00067458602
0.00069241655
0.00069770046
0.00069076986
0.00067257629
0.0006445334
0.00060836092
0.00056593949
0.00051918238
0.00046992909
0.0004198622
0.00037044842
0.00032290195
0.00027816864
0.00023692733
0.00019960545
0.00016640532
0.0001373377
0.00011225954
9.0912948e-05
7.2962963e-05
5.8031966e-05
4.5729139e-05
3.5673912e-05
2.751292e-05
2.0930591e-05
1.5654015e-05
1.1453164e-05
8.1379349e-06
5.5530332e-06
3.5736264e-06
2.0979004e-06
1.0535415e-06
3.7224855e-07
5.027707e-08
0.0017726201
0.0014284185
0.0011385856
0.00089794215
0.00070394822
0.00055294252
0.00044137349
0.00036488161
0.00031837151
0.0002964233
0.00029359855
0.00030463312
0.0003246055
0.00034909893
0.0003743317
0.0003972389
0.00041550503
0.00042755397
0.00043250219
0.00043008224
0.00042054484
0.00040454855
0.0003830458
0.00035717269
0.00032814832
0.00029718815
0.00026543373
0.00023390022
0.00020344122
0.00017473007
0.00014825532
0.00012432834
0.00010310003
8.4584252e-05
6.868503e-05
5.5225224e-05
4.3974404e-05
3.4674133e-05
2.7059312e-05
2.087474e-05
1.5886613e-05
1.1889164e-05
8.7071304e-06
6.1950416e-06
4.2343274e-06
2.7301238e-06
1.6062993e-06
8.0807723e-07
2.873744e-07
3.7321343e-08
0.0023403963
0.0019633296
0.0016307455
0.0013390095
0.001087679
0.00087507782
0.00069961376
0.00055890531
0.00044977543
0.00036854844
0.00031127111
0.00027385468
0.0002522141
0.00024241911
0.00024083415
0.00024422919
0.00024985758
0.00025550117
0.00025948391
0.00026065585
0.00025835181
0.00025233043
0.00024270029
0.0002298393
0.00021431357
0.00019680042
0.00017801988
0.00015867698
0.00013941687
0.00012079273
0.00010324651
8.710098e-05
7.2561662e-05
5.9726421e-05
4.8600787e-05
3.9116656e-05
3.1152374e-05
2.4552354e-05
1.9144763e-05
1.4756164e-05
1.1222532e-05
8.396472e-06
6.1509383e-06
4.3800718e-06
2.9979389e-06
1.936383e-06
1.1418001e-06
5.7545777e-07
2.0590761e-07
2.5710959e-08
0.0029187466
0.0025254557
0.0021674128
0.0018420881
0.0015503334
0.0012918247
0.0010663571
0.00087304651
0.00071027071
0.00057587258
0.00046730495
0.00038171814
0.00031605625
0.00026717566
0.00023196717
0.00020746583
0.00019094332
0.00017998025
0.00017251647
0.00016687779
0.00016177961
0.00015630999
0.00014989583
0.00014225641
0.00013334916
0.00012331199
0.00011240647
0.00010096525
8.9346258e-05
7.7895491e-05
6.6919095e-05
5.6664982e-05
4.7313144e-05
3.8973803e-05
3.1691778e-05
2.5455495e-05
2.0208883e-05
1.5864502e-05
1.2316463e-05
9.451949e-06
7.1605241e-06
5.3408009e-06
3.904441e-06
2.7777612e-06
1.9014856e-06
1.2293784e-06
7.2614234e-07
3.6654436e-07
1.3186295e-07
1.5847797e-08
0.0034866141
0.0030895649
0.0027195828
0.002374915
0.0020571179
0.0017667181
0.001504413
0.0012703642
0.0010641123
0.00088470936
0.00073080457
0.00060068567
0.0004923325
0.00040349645
0.00033179187
0.0002747865
0.00023008675
0.00019541447
0.00016867199
0.00014799193
0.00013177019
0.00011868159
0.00010767943
9.7980927e-05
8.9041215e-05
8.0519343e-05
7.2239518e-05
6.4150893e-05
5.6288774e-05
4.8739482e-05
4.161065e-05
3.5007829e-05
2.9017882e-05
2.3698847e-05
1.9075723e-05
1.5141086e-05
1.1859358e-05
9.1734061e-06
7.0122245e-06
5.2985632e-06
3.9556302e-06
2.9122776e-06
2.1063998e-06
1.4865632e-06
1.0121382e-06
6.5237111e-07
3.8483813e-07
1.9415065e-07
6.9973583e-08
8.1973462e-09
0.0040294688
0.0036376436
0.0032658986
0.002913029
0.0025808869
0.002270481
0.0019830324
0.0017193707
0.001479839
0.0012643787
0.0010725736
0.00090365734
0.00075653334
0.00062981781
0.00052189844
0.00043099796
0.00035524044
0.00029271744
0.00024155109
0.00019995014
0.00016625638
0.00013897948
0.00011681936
9.8676329e-05
8.3649767e-05
7.1027012e-05
6.026467e-05
5.0964682e-05
4.2847617e-05
3.5725461e-05
2.9475856e-05
2.4019302e-05
1.9300344e-05
1.5273277e-05
1.1892406e-05
9.1065695e-06
6.8572312e-06
5.079335e-06
3.7039648e-06
2.6618953e-06
1.8872193e-06
1.3204219e-06
9.1050598e-07
6.1600232e-07
4.0491641e-07
2.5386336e-07
1.4658508e-07
7.2753365e-08
2.5593278e-08
3.281385e-09
0.0045376871
0.0041572444
0.0037910743
0.0034383669
0.0031010058
0.0027802255
0.0024774972
0.0021940262
0.0019306605
0.0016879437
0.0014661331
0.0012651868
0.0010847591
0.00092421648
0.00078266737
0.0006589992
0.00055192206
0.00046001686
0.0003817863
0.00031570516
0.00026026739
0.00021402755
0.00017563477
0.00014385823
0.00011760342
9.5919671e-05
7.7999512e-05
6.317129e-05
5.0886623e-05
4.0704431e-05
3.227327e-05
2.5313571e-05
1.9601037e-05
1.4952219e-05
1.1212782e-05
8.2487631e-06
5.9406669e-06
4.1800661e-06
2.86816e-06
1.9156643e-06
1.2434038e-06
7.8305496e-07
4.7761757e-07
2.8136722e-07
1.5917537e-07
8.5385194e-08
4.1979897e-08
1.7844814e-08
4.4508922e-09
1.65023e-09
0.0050052809
0.004640137
0.0042845411
0.0039379797
0.0036022086
0.0032785216
0.0029684549
0.0026733795
0.0023944205
0.0021324895
0.0018882884
0.0016622861
0.0014547
0.0012654932
0.0010943832
0.00094085706
0.00080419395
0.00068349412
0.00057771363
0.00048570227
0.00040624295
0.00033809018
0.00028000603
0.00023079154
0.00018931268
0.00015451986
0.00012546082
0.00010128708
8.1254722e-05
6.4720355e-05
5.1133477e-05
4.0026542e-05
3.1003876e-05
2.3730513e-05
1.7921805e-05
1.3334377e-05
9.758757e-06
7.0137206e-06
4.9422263e-06
3.4086177e-06
2.2967474e-06
1.5086091e-06
9.6313691e-07
5.9493407e-07
3.5272413e-07
1.977569e-07
1.0134177e-07
4.483921e-08
1.225966e-08
3.8403285e-09
0.0054288949
0.0050812162
0.0047393093
0.0044028967
0.0040735212
0.0037524355
0.0034411249
0.0031409857
0.0028532573
0.0025790425
0.0023193043
0.0020748389
0.0018462517
0.0016339438
0.0014381064
0.0012587208
0.0010955645
0.00094822319
0.0008161095
0.00069848675
0.00059449645
0.00050318826
0.00042355095
0.0003545425
0.00029511828
0.00024425578
0.00020097526
0.00016435555
0.00013354511
0.00010776836
8.6327849e-05
6.8603058e-05
5.4046507e-05
4.2178202e-05
3.2579134e-05
2.4884588e-05
1.877774e-05
1.3983961e-05
1.0265888e-05
7.4193682e-06
5.2700948e-06
3.6707775e-06
2.4986312e-06
1.65302e-06
1.0530517e-06
6.35466e-07
3.5141248e-07
1.6741186e-07
5.4115736e-08
1.0307605e-08
0.005807025
0.005477628
0.005151032
0.0048271597
0.0045073037
0.0041926218
0.0038844839
0.0035842251
0.0032930916
0.0030122532
0.0027427971
0.0024857028
0.0022418167
0.0020118343
0.0017962869
0.0015955321
0.0014097486
0.0012389355
0.0010829183
0.00094135907
0.00081377162
0.00069954087
0.00059794503
0.00050817969
0.00042938262
0.00036065808
0.00030109958
0.00024981009
0.00020591921
0.00016859681
0.00013706308
0.00011059512
8.8530483e-05
7.0268058e-05
5.5267019e-05
4.3044313e-05
3.317128e-05
2.5269855e-05
1.9008655e-05
1.4099214e-05
1.0292413e-05
7.3751713e-06
5.1672887e-06
3.518478e-06
2.3053411e-06
1.4289265e-06
8.1078841e-07
3.9519498e-07
1.3366637e-07
2.1335809e-08
0.0061393575
0.0058280257
0.0055171916
0.0052069576
0.0048983602
0.0045924395
0.004290421
0.0039935323
0.0037029614
0.0034198646
0.0031453596
0.0028805038
0.0026262716
0.0023835353
0.0021530492
0.0019354353
0.0017311711
0.0015405819
0.0013638359
0.0012009449
0.0010517685
0.00091602316
0.00079329452
0.00068305336
0.00058467391
0.00049745367
0.00042063395
0.0003534201
0.00029500056
0.0002445642
0.00020131529
0.00016448584
0.00013334531
0.00010720761
8.5435765e-05
6.7444474e-05
5.270104e-05
4.0724951e-05
3.1086537e-05
2.3404986e-05
1.7345918e-05
1.2618704e-05
8.9735981e-06
6.198791e-06
4.1173301e-06
2.5846194e-06
1.4840716e-06
7.3081239e-07
2.5203786e-07
3.6917752e-08
0.0064263017
0.0061320307
0.0058364966
0.0055399719
0.005243248
0.0049472445
0.0046530368
0.0043617271
0.004074412
0.003792188
0.0035161443
0.0032473462
0.0029868155
0.0027355131
0.0024943229
0.0022640361
0.0020453363
0.0018387867
0.0016448204
0.0014637331
0.0012956796
0.0011406739
0.00099859311
0.00086918487
0.00075207795
0.00064679574
0.00055277179
0.00046936679
0.00039588622
0.0003315979
0.00027574882
0.00022758064
0.00018634349
0.00015130774
0.0001217737
9.7079151e-05
7.6604996e-05
5.9779014e-05
4.6078137e-05
3.5029399e-05
2.6209825e-05
1.9245474e-05
1.3809778e-05
9.6215016e-06
6.4420992e-06
4.0737991e-06
2.3551108e-06
1.1664535e-06
4.0659157e-07
5.6621952e-08
0.0066683784
0.0063895467
0.0061081267
0.0058245566
0.0055394039
0.0052534768
0.0049677105
0.004683082
0.0044005859
0.0041212373
0.0038460659
0.0035761032
0.0033123665
0.0030558449
0.0028074836
0.0025681696
0.0023387156
0.0021198463
0.0019121849
0.0017162418
0.001532406
0.0013609388
0.0012019704
0.0010555007
0.00092140216
0.00079942664
0.00068921493
0.00059030877
0.00050216475
0.00042416965
0.0003556565
0.00029592074
0.00024423586
0.00019986814
0.00016208999
0.00013019167
0.00010349118
8.1342418e-05
6.3141361e-05
4.8330663e-05
3.6402633e-05
2.6900832e-05
1.9420502e-05
1.3608042e-05
9.1596407e-06
5.8202571e-06
3.3796629e-06
1.6800924e-06
5.8954429e-07
7.9427437e-08
0.006866136
0.0066006267
0.0063315468
0.006059505
0.005784868
0.0055083482
0.0052307598
0.0049529667
0.0046758662
0.0044003888
0.0041274934
0.0038581582
0.0035933681
0.0033341036
0.0030813267
0.0028359684
0.0025989133
0.0023709862
0.0021529367
0.0019454271
0.0017490196
0.0015641666
0.0013912023
0.0012303376
0.0010816574
0.00094512158
0.00082056801
0.00070771964
0.00060619366
0.00051551317
0.00043512084
0.00036439369
0.00030265889
0.00024920947
0.00020331985
0.00016426047
0.00013131111
0.00010377276
8.0977689e-05
6.2297668e-05
4.7150397e-05
3.5004086e-05
2.5380462e-05
1.7856373e-05
1.206407e-05
7.6916822e-06
4.4800648e-06
2.2327933e-06
7.8699026e-07
1.0364324e-07
0.0070188477
0.0067640986