/*--------------------------------*- C++ -*----------------------------------*\
  =========                 |
  \\      /  F ield         | OpenFOAM: The Open Source CFD Toolbox
   \\    /   O peration     | Website:  https://openfoam.org
    \\  /    A nd           | Version:  6
     \\/     M anipulation  |
\*---------------------------------------------------------------------------*/
FoamFile
{
    version     2.0;
    format      ascii;
    class       volScalarField;
    location    "52";
    object      p;
}
// * * * * * * * * * * * * * * * * * * * * * * * * * * * * * * * * * * * * * //

dimensions      [0 2 -2 0 0 0 0];

internalField   nonuniform List<scalar> 
9200
(
-0.38458997
-0.37320925
-0.36308632
-0.35411224
-0.34534898
-0.33681013
-0.32857385
-0.32060708
-0.31284178
-0.30520529
-0.29762392
-0.29002796
-0.28235866
-0.27457557
-0.26666716
-0.2586686
-0.25065644
-0.24271894
-0.23587858
-0.23441183
-0.40249518
-0.3886592
-0.37658962
-0.36609348
-0.35595602
-0.34615819
-0.33676847
-0.3277228
-0.31892079
-0.31026323
-0.30165614
-0.29301668
-0.28428071
-0.27540882
-0.26639196
-0.25725535
-0.24802941
-0.23871469
-0.22999234
-0.22402414
-0.42081645
-0.40450301
-0.39053337
-0.37858612
-0.36712998
-0.356095
-0.34552815
-0.33532672
-0.325356
-0.31549424
-0.30563646
-0.29570019
-0.28563223
-0.27541181
-0.26505043
-0.2545874
-0.24406235
-0.2334852
-0.22325438
-0.21448291
-0.439118
-0.42034695
-0.40454323
-0.39120671
-0.37845195
-0.3661417
-0.35429357
-0.34276577
-0.33139736
-0.32005963
-0.30865759
-0.29713305
-0.2854677
-0.27368086
-0.26182271
-0.249964
-0.23817229
-0.22648734
-0.21517641
-0.2049799
-0.45676766
-0.43564294
-0.41812245
-0.40347381
-0.38942967
-0.37577471
-0.36249716
-0.34942697
-0.33639775
-0.32330117
-0.31008216
-0.29673518
-0.28329993
-0.26985135
-0.25648608
-0.24330809
-0.23040833
-0.21784598
-0.20580931
-0.1948058
-0.4729383
-0.44966952
-0.43060845
-0.41473701
-0.39939623
-0.38429295
-0.36939863
-0.35454086
-0.33958223
-0.32447139
-0.30922619
-0.29391845
-0.27865945
-0.2635817
-0.24882053
-0.23449887
-0.22071198
-0.20751608
-0.19503722
-0.18361253
-0.48662196
-0.46153768
-0.44117387
-0.42417943
-0.40752094
-0.39084338
-0.37412956
-0.35724576
-0.34012829
-0.32282229
-0.30544677
-0.28816459
-0.27115756
-0.25460266
-0.23865333
-0.22342804
-0.20900277
-0.1954086
-0.18271236
-0.17111555
-0.49665205
-0.47021455
-0.44885914
-0.43086497
-0.41287416
-0.39450413
-0.375792
-0.35669527
-0.33727254
-0.31770046
-0.29821637
-0.27907357
-0.26050949
-0.2427221
-0.22585679
-0.21000362
-0.19519967
-0.18143652
-0.1687229
-0.15714615
-0.5016836
-0.47442196
-0.45237512
-0.43345449
-0.41407671
-0.39389408
-0.37305836
-0.35167567
-0.32996651
-0.30825443
-0.28688822
-0.26618875
-0.24641805
-0.2277636
-0.21033643
-0.19417954
-0.17928046
-0.16558708
-0.15305402
-0.14167082
-0.50036403
-0.4727404
-0.45017118
-0.43027951
-0.40940396
-0.38731568
-0.36434671
-0.3407976
-0.31706434
-0.29360012
-0.27082763
-0.24908956
-0.2286296
-0.20959175
-0.19203231
-0.1759387
-0.16124942
-0.14787448
-0.13572157
-0.12469508
-0.27136665
-0.27605339
-0.27856704
-0.27931767
-0.27909968
-0.27810046
-0.27640162
-0.27409084
-0.2712404
-0.26790506
-0.26412887
-0.25994932
-0.25539952
-0.25050953
-0.24530762
-0.23982268
-0.23408567
-0.22811711
-0.22191597
-0.21556814
-0.27410975
-0.27837938
-0.28058507
-0.2811163
-0.28071471
-0.27955892
-0.2777286
-0.27530771
-0.27236496
-0.26895224
-0.26511119
-0.26087719
-0.25628144
-0.25135199
-0.2461145
-0.24059684
-0.23483747
-0.22885528
-0.22254232
-0.21587226
-0.27945917
-0.28291326
-0.28451864
-0.28462073
-0.28385921
-0.28239717
-0.28031073
-0.27767656
-0.27455637
-0.27099644
-0.26703354
-0.26269883
-0.2580197
-0.25302037
-0.24772161
-0.24214844
-0.23635073
-0.23034631
-0.22383453
-0.21655566
-0.28717336
-0.28946019
-0.29019683
-0.28966816
-0.28837224
-0.28645244
-0.28398091
-0.28102438
-0.27763488
-0.27385079
-0.26970202
-0.26521357
-0.26040733
-0.25530175
-0.2499108
-0.24425428
-0.23839401
-0.23235251
-0.22558208
-0.21745107
-0.29694803
-0.29777563
-0.29740685
-0.29605837
-0.29405861
-0.29153006
-0.28854166
-0.2851488
-0.28139206
-0.27730052
-0.2728958
-0.2681946
-0.26321125
-0.25795725
-0.25243844
-0.2466662
-0.24071024
-0.23460639
-0.22754767
-0.21838545
-0.30846748
-0.30760594
-0.30593011
-0.30358937
-0.30072572
-0.29744216
-0.29380664
-0.2898635
-0.28564126
-0.2811573
-0.27642237
-0.27144389
-0.26622731
-0.2607757
-0.25508569
-0.2491573
-0.24306013
-0.23684946
-0.22948784
-0.21918888
-0.32145131
-0.31872499
-0.31557505
-0.3120908
-0.30821921
-0.30404698
-0.29964498
-0.29504609
-0.29026407
-0.28530373
-0.28016431
-0.27484187
-0.26933118
-0.26362571
-0.25771295
-0.25158106
-0.24529232
-0.2389246
-0.23127374
-0.21984812
-0.33568259
-0.33095706
-0.32619934
-0.32144852
-0.31645237
-0.31128427
-0.30601832
-0.30067514
-0.29525366
-0.2897442
-0.28413152
-0.27839732
-0.27252266
-0.2664888
-0.26027349
-0.25385593
-0.2472955
-0.240716
-0.23286628
-0.22054649
-0.35100784
-0.34416942
-0.33769239
-0.3315758
-0.3253609
-0.31910644
-0.31289164
-0.30672431
-0.30058568
-0.29444832
-0.28827895
-0.28204068
-0.27569537
-0.26920382
-0.26252126
-0.25559949
-0.24846236
-0.24121614
-0.23260625
-0.21912866
-0.36732806
-0.35825412
-0.34994177
-0.34235493
-0.33481491
-0.32736557
-0.32009117
-0.31298438
-0.30600616
-0.2991097
-0.2922433
-0.28535323
-0.27838665
-0.27129168
-0.26401216
-0.25648345
-0.24864829
-0.24030037
-0.22979154
-0.2140813
-0.20836936
-0.19935913
-0.19034113
-0.1813801
-0.17242205
-0.16350883
-0.15469443
-0.14601427
-0.13749796
-0.12917443
-0.1210698
-0.11320658
-0.10560418
-0.098279192
-0.091245436
-0.084513969
-0.07809322
-0.071989083
-0.066205013
-0.060742131
-0.055599348
-0.0507735
-0.046259499
-0.042050497
-0.03813806
-0.034512359
-0.031162356
-0.028076003
-0.025240435
-0.02264216
-0.02026724
-0.018101469
-0.016130534
-0.014340164
-0.01271627
-0.011245077
-0.0099132463
-0.008707965
-0.0076172019
-0.0066293935
-0.0057351438
-0.0049226545
-0.004193304
-0.0035157931
-0.0029678195
-0.0023215325
-0.0022665761
-0.00090445128
-0.0037808904
0.0044620025
-0.209392
-0.19998243
-0.19085507
-0.18190891
-0.17293302
-0.16398963
-0.15515084
-0.14644846
-0.13790959
-0.12956372
-0.12143727
-0.11355261
-0.10592915
-0.098583574
-0.091529747
-0.084778797
-0.07833922
-0.072216971
-0.06641556
-0.06093615
-0.055777686
-0.050937028
-0.046409099
-0.042187056
-0.038262459
-0.034625465
-0.031265017
-0.028169042
-0.025324642
-0.022718291
-0.020336014
-0.018163566
-0.016186589
-0.01439077
-0.012761981
-0.011286399
-0.0099506471
-0.0087418679
-0.0076479896
-0.0066574073
-0.0057606821
-0.004945975
-0.0042145921
-0.0035352509
-0.0029852418
-0.0023376547
-0.0022781219
-0.00091960066
-0.0037678251
0.0044180159
-0.21153519
-0.20127071
-0.1919253
-0.18304924
-0.1740503
-0.16504632
-0.15616007
-0.14741383
-0.13882799
-0.1304342
-0.12226016
-0.11432812
-0.10665758
-0.099265586
-0.092166289
-0.085371041
-0.07888855
-0.072724965
-0.06688395
-0.061366796
-0.056172542
-0.051298112
-0.046738468
-0.042486777
-0.038534589
-0.03487203
-0.031487994
-0.028370344
-0.025506109
-0.022881678
-0.020482983
-0.018295681
-0.016305315
-0.014497469
-0.01285791
-0.011372714
-0.010028403
-0.0088120213
-0.0077114
-0.0067148378
-0.0058127997
-0.0049933496
-0.0042576502
-0.0035744165
-0.0030201818
-0.0023697601
-0.0023010917
-0.00094939855
-0.0037416934
0.0043307305
-0.21463641
-0.20298884
-0.19332168
-0.18464729
-0.17566022
-0.16657985
-0.15763988
-0.14884513
-0.14020052
-0.13174284
-0.12350353
-0.1155049
-0.10776676
-0.100307
-0.093140493
-0.086279117
-0.079732052
-0.073505859
-0.067604548
-0.062029682
-0.056780513
-0.051854117
-0.047245558
-0.042948056
-0.038953175
-0.035251013
-0.031830409
-0.028679143
-0.025784137
-0.023131656
-0.020707495
-0.018497163
-0.016486049
-0.014659577
-0.013003355
-0.011503299
-0.010145773
-0.0089176649
-0.007806656
-0.0068008932
-0.0058906916
-0.0050639628
-0.0043216519
-0.0036324585
-0.0030717976
-0.0024170132
-0.0023346641
-0.00099298257
-0.0037022828
0.0042017901
-0.21846397
-0.20486219
-0.19477089
-0.18650136
-0.17761257
-0.16845889
-0.15947665
-0.15065017
-0.1419526
-0.13342797
-0.12511632
-0.1170411
-0.10922255
-0.10168001
-0.094429786
-0.087484792
-0.080855063
-0.074547914
-0.068567986
-0.062917355
-0.057595674
-0.052600328
-0.047926603
-0.043567861
-0.039515741
-0.035760358
-0.032290514
-0.029093909
-0.026157348
-0.02346695
-0.021008341
-0.018766842
-0.01672764
-0.014875953
-0.013197174
-0.011677006
-0.0103016
-0.0090576352
-0.007932586
-0.0069143945
-0.0059931719
-0.0051566231
-0.0044054001
-0.0037081778
-0.003138889
-0.0024782122
-0.0023777133
-0.0010490447
-0.0036495616
0.00403382
-0.2226643
-0.20660637
-0.1960001
-0.18837377
-0.17973067
-0.17053612
-0.16153445
-0.15271118
-0.14398793
-0.1354102
-0.12703193
-0.11888112
-0.110979
-0.10334681
-0.096003088
-0.088962577
-0.08223674
-0.075834114
-0.069760381
-0.064018479
-0.058608753
-0.053529132
-0.048775311
-0.044340948
-0.040217872
-0.036396296
-0.032865043
-0.029611766
-0.026623169
-0.02388522
-0.021383359
-0.019102691
-0.017028169
-0.01514476
-0.013437596
-0.011892117
-0.010494211
-0.0092302931
-0.0080875811
-0.0070537578
-0.0061186778
-0.0052697855
-0.0045073648
-0.0038000599
-0.0032199565
-0.0025518696
-0.0024288668
-0.0011159865
-0.003583593
0.0038302171
-0.22683341
-0.20803712
-0.1967954
-0.18998293
-0.18180967
-0.17268074
-0.16369467
-0.15491244
-0.14620719
-0.13760837
-0.12918233
-0.12096703
-0.11298707
-0.10526605
-0.097825465
-0.090682849
-0.083851897
-0.077342985
-0.071163364
-0.065317281
-0.059806149
-0.054628747
-0.049781433
-0.045258358
-0.041051694
-0.037151874
-0.033547825
-0.03022721
-0.027176661
-0.024382012
-0.021828513
-0.019501038
-0.017384276
-0.015462908
-0.013721766
-0.012145982
-0.010721131
-0.0094333173
-0.0082694511
-0.0072169055
-0.0062652274
-0.0054015499
-0.004625713
-0.0039063345
-0.0033132814
-0.0026363206
-0.0024866057
-0.0011920993
-0.0035045054
0.0035949115
-0.2307035
-0.20954842
-0.19738166
-0.19114044
-0.18363297
-0.17480291
-0.16591149
-0.15719553
-0.14854608
-0.13996447
-0.13151599
-0.12325128
-0.11520275
-0.10739755
-0.099860553
-0.092612819
-0.085671086
-0.079048197
-0.072753476
-0.06679292
-0.061169387
-0.055882824
-0.050930511
-0.046307309
-0.042005907
-0.038017091
-0.034329994
-0.030932365
-0.027810817
-0.024951073
-0.022338207
-0.019956855
-0.017791429
-0.015826296
-0.014045959
-0.012435201
-0.010979245
-0.0096638393
-0.0084755411
-0.0074013675
-0.0064305088
-0.0055497416
-0.0047583857
-0.0040250495
-0.0034169992
-0.0027297976
-0.0025493418
-0.0012756736
-0.0034124846
0.0033323275
-0.23192257
-0.21137597
-0.19844936
-0.19177986
-0.18476219
-0.17651823
-0.16790726
-0.15932362
-0.1507841
-0.14228224
-0.13386605
-0.12559385
-0.11750923
-0.10964519
-0.10203057
-0.094690588
-0.087645858
-0.08091253
-0.074502734
-0.068424888
-0.0626839
-0.057281427
-0.05221614
-0.047484014
-0.043078599
-0.038991316
-0.035211738
-0.031727878
-0.02852647
-0.025593233
-0.022913131
-0.02047061
-0.018249823
-0.016234829
-0.014409786
-0.012759106
-0.011267627
-0.0099207038
-0.0087044971
-0.0076056207
-0.0066128596
-0.0057125844
-0.00490352
-0.0041542724
-0.0035291631
-0.0028302754
-0.0026153734
-0.0013643093
-0.0033083447
0.0030484136
-0.22202762
-0.21059613
-0.19955012
-0.19141889
-0.18431612
-0.17685175
-0.16885243
-0.16063952
-0.15239226
-0.14413688
-0.13590141
-0.12774376
-0.11971985
-0.11187301
-0.10423943
-0.096850989
-0.089734665
-0.08291217
-0.076400399
-0.070211844
-0.064354883
-0.058834073
-0.053650482
-0.048802018
-0.044283771
-0.040088342
-0.036206179
-0.032625901
-0.029334622
-0.026318248
-0.023561771
-0.021049536
-0.01876549
-0.016693409
-0.014817103
-0.013120599
-0.011588317
-0.010205178
-0.008956898
-0.0078296359
-0.0068117188
-0.0058890498
-0.0050596992
-0.0042922196
-0.0036478071
-0.0029353162
-0.0026829797
-0.0014537928
-0.0031950417
0.002751266
-0.19989219
-0.20451887
-0.19919564
-0.1902544
-0.18270937
-0.17565343
-0.16810141
-0.16018939
-0.1521833
-0.14414652
-0.13609895
-0.12809387
-0.12019098
-0.112438
-0.1048743
-0.097534712
-0.090449189
-0.083642255
-0.077133338
-0.070937214
-0.065064303
-0.059520974
-0.054309877
-0.049430295
-0.044878495
-0.040648075
-0.036730316
-0.033114522
-0.029788356
-0.026738158
-0.023949247
-0.021406205
-0.019093135
-0.016993905
-0.015092359
-0.01337251
-0.011818726
-0.010415839
-0.0091494474
-0.0080055727
-0.0069723201
-0.0060355018
-0.0051924414
-0.0044126369
-0.0037523917
-0.0030318816
-0.0027404341
-0.0015421015
-0.003071478
0.0024533547
-0.1892676
-0.19499986
-0.19148134
-0.18271665
-0.17547773
-0.16917817
-0.16243202
-0.15523957
-0.14789632
-0.1404775
-0.13299321
-0.1254924
-0.11803715
-0.11067887
-0.10346045
-0.096420557
-0.089593161
-0.083006795
-0.076684733
-0.070645397
-0.064902638
-0.059466014
-0.054341121
-0.049529942
-0.045031204
-0.040840733
-0.036951814
-0.033355544
-0.030041177
-0.026996456
-0.024207925
-0.021661231
-0.019341393
-0.017233054
-0.015320714
-0.013588927
-0.012022501
-0.010606619
-0.0093271368
-0.008170295
-0.0071242064
-0.0061749956
-0.0053190372
-0.0045279901
-0.0038507703
-0.0031254237
-0.0027867714
-0.0016373176
-0.0029113183
0.0021293043
-0.18044431
-0.18357792
-0.18125687
-0.17421902
-0.16783795
-0.162237
-0.15626234
-0.14980509
-0.14313107
-0.13633542
-0.1294304
-0.12245876
-0.11548131
-0.10855123
-0.10171354
-0.095009223
-0.088475167
-0.082143109
-0.076039611
-0.070186382
-0.0646005
-0.059294638
-0.054277351
-0.049553409
-0.04512413
-0.040987732
-0.037139689
-0.033573083
-0.030278954
-0.027246638
-0.024464091
-0.021918195
-0.019595043
-0.017480202
-0.015558955
-0.013816513
-0.012238223
-0.010809711
-0.0095171552
-0.008347081
-0.0072876374
-0.0063253323
-0.0054554845
-0.0046522325
-0.0039561452
-0.0032255626
-0.0028337435
-0.0017399845
-0.0027262493
0.0017695195
-0.17067254
-0.17120651
-0.16933246
-0.16437424
-0.15922883
-0.15437534
-0.14919639
-0.14355573
-0.13762962
-0.13151894
-0.12525174
-0.11886882
-0.11242746
-0.10598144
-0.099577584
-0.093258874
-0.087064656
-0.081029617
-0.075183503
-0.069551302
-0.064153398
-0.059005725
-0.054120002
-0.049504014
-0.04516193
-0.041094626
-0.037300035
-0.033773487
-0.030508064
-0.027494936
-0.024723695
-0.022182664
-0.019859197
-0.017739953
-0.015811146
-0.014058776
-0.012468844
-0.011027508
-0.0097213523
-0.0085372482
-0.0074634276
-0.0064868157
-0.0056016732
-0.0047846583
-0.0040677783
-0.0033301452
-0.0028815477
-0.0018432702
-0.0025276004
0.0013897706
-0.16000057
-0.15867038
-0.15682286
-0.15358019
-0.14973173
-0.14568755
-0.14130968
-0.13651744
-0.13139291
-0.12601865
-0.12043861
-0.11469638
-0.10884491
-0.10293663
-0.097019258
-0.091137022
-0.085331007
-0.079638269
-0.074091368
-0.068718352
-0.063542814
-0.058583967
-0.053856788
-0.049372252
-0.045137587
-0.041156576
-0.037429871
-0.033955323
-0.030728324
-0.027742144
-0.024988255
-0.02245666
-0.020136189
-0.018014788
-0.016079779
-0.014318104
-0.012716552
-0.011261932
-0.0099413285
-0.0087420362
-0.0076524361
-0.0066598967
-0.0057576817
-0.0049248746
-0.0041851137
-0.0034377508
-0.0029299971
-0.0019434803
-0.0023229538
0.0010026606
-0.14811072
-0.146005
-0.14427808
-0.14230927
-0.13963369
-0.1364293
-0.1328421
-0.12887793
-0.12455807
-0.11993793
-0.11506837
-0.1099946
-0.1047657
-0.099431636
-0.094039674
-0.088634218
-0.08325698
-0.077946409
-0.072737111
-0.067659616
-0.0627403
-0.058001363
-0.053460891
-0.049132989
-0.04502798
-0.04115265
-0.037510517
-0.034102138
-0.030925419
-0.027975942
-0.025247288
-0.022731349
-0.020418644
-0.018298599
-0.016359829
-0.014590384
-0.012977986
-0.011510225
-0.010174801
-0.008959519
-0.0078529956
-0.00684307
-0.005922123
-0.0050714795
-0.0043069236
-0.0035467469
-0.0029787994
-0.0020377133
-0.0021202633
0.00062125542
-0.13531971
-0.13335547
-0.1319822
-0.13092507
-0.12921413
-0.12682232
-0.12399843
-0.12081575
-0.11727073
-0.1133925
-0.10923114
-0.10483285
-0.10024101
-0.095501184
-0.090659204
-0.085758743
-0.080841064
-0.075944863
-0.071105798
-0.066356069
-0.061724175
-0.057234787
-0.052908707
-0.04876291
-0.044810661
-0.041061681
-0.037522369
-0.03419605
-0.031083259
-0.028182037
-0.025488231
-0.022995808
-0.02069715
-0.018583349
-0.016644482
-0.01486987
-0.013248323
-0.011768345
-0.010418373
-0.0091868242
-0.0080626498
-0.0070341911
-0.006093106
-0.0052227086
-0.0044317303
-0.0036554353
-0.0030277144
-0.002123416
-0.0019281466
0.00025951062
-0.12234466
-0.12096818
-0.12008782
-0.11968661
-0.11873193
-0.11707751
-0.11496685
-0.11250369
-0.10968115
-0.10651068
-0.10303446
-0.099296997
-0.095337871
-0.091196593
-0.086914931
-0.082534874
-0.07809648
-0.073637662
-0.069194043
-0.064798535
-0.060480943
-0.056267714
-0.052181798
-0.048242597
-0.044465983
-0.04086439
-0.037446955
-0.034219716
-0.031185838
-0.028345873
-0.025698031
-0.023238468
-0.02096157
-0.01886024
-0.016926171
-0.015150107
-0.013522087
-0.012031667
-0.010668146
-0.0094206576
-0.0082786023
-0.0072308605
-0.0062685609
-0.0053767215
-0.0045580353
-0.0037623128
-0.0030766112
-0.0021988588
-0.0017548004
-6.9207725e-05
-0.1097275
-0.10902172
-0.10866013
-0.1087535
-0.10838757
-0.10737204
-0.10590493
-0.10409094
-0.10192654
-0.099413767
-0.096584935
-0.093479159
-0.090131848
-0.086577871
-0.082853805
-0.078997645
-0.075047321
-0.07103924
-0.067008051
-0.062986398
-0.059004503
-0.055089806
-0.051266721
-0.047556495
-0.04397714
-0.04054343
-0.037266971
-0.034156326
-0.03121718
-0.028452548
-0.025863007
-0.023446951
-0.021200849
-0.019119518
-0.017196384
-0.015423737
-0.013792978
-0.012294837
-0.010919598
-0.0096572209
-0.0084976706
-0.007430415
-0.0064462682
-0.0055316715
-0.0046844128
-0.0038662248
-0.0031255129
-0.0022634459
-0.0016069989
-0.00035376329
-0.097752426
-0.097634954
-0.097743619
-0.098225249
-0.098321313
-0.097841841
-0.09693689
-0.095697188
-0.094121487
-0.092207109
-0.089977265
-0.087463989
-0.084697428
-0.081707505
-0.078526217
-0.075186987
-0.071723902
-0.06817098
-0.06456118
-0.060926038
-0.057295329
-0.05369668
-0.050155241
-0.046693458
-0.043330917
-0.040084266
-0.036967201
-0.033990513
-0.031162194
-0.028487579
-0.025969529
-0.023608647
-0.021403499
-0.019350862
-0.017445968
-0.015682745
-0.014054056
-0.012551913
-0.011167699
-0.0098922984
-0.0087163609
-0.0076299984
-0.0066239321
-0.0056857826
-0.0048095933
-0.0039664481
-0.0031746193
-0.0023177508
-0.0014893204
-0.00058662921
-0.086558764
-0.086898611
-0.087390817
-0.088175483
-0.088632892
-0.088591416
-0.088162922
-0.087420157
-0.086361437
-0.084981187
-0.083294959
-0.081327387
-0.079102823
-0.076645899
-0.073983588
-0.071144895
-0.068159736
-0.065058537
-0.061871763
-0.058629149
-0.055359271
-0.052089172
-0.048844013
-0.045646766
-0.04251799
-0.039475675
-0.036535154
-0.033709074
-0.031007433
-0.028437661
-0.026004743
-0.023711386
-0.021558202
-0.019543917
-0.01766559
-0.015918838
-0.014298055
-0.01279662
-0.011407104
-0.010121412
-0.0089309873
-0.0078266519
-0.0067992516
-0.0058374002
-0.0049325063
-0.0040626896
-0.0032242737
-0.0023633363
-0.0014036483
-0.00076482277
-0.076206365
-0.076875051
-0.077654295
-0.078664187
-0.079397063
-0.079703338
-0.079666659
-0.07934309
-0.078728845
-0.077815937
-0.076613579
-0.075139452
-0.073412015
-0.071450553
-0.069276824
-0.066915025
-0.064390839
-0.0617308
-0.058962031
-0.056111766
-0.053206725
-0.050272686
-0.047334124
-0.044413879
-0.041532866
-0.038709855
-0.035961316
-0.033301323
-0.030741519
-0.028291135
-0.025957052
-0.023743912
-0.021654257
-0.019688697
-0.017846093
-0.016123755
-0.014517641
-0.013022551
-0.011632315
-0.010339935
-0.0091377471
-0.0080173556
-0.0069699343
-0.0059849734
-0.0050522458
-0.0041549792
-0.0032748571
-0.0024023936
-0.0013490623
-0.00089016679
-0.066706787
-0.067596897
-0.06857423
-0.069738119
-0.070670826
-0.071243419
-0.071518584
-0.071538575
-0.071297146
-0.07078417
-0.070003624
-0.068967036
-0.067687269
-0.066178418
-0.064457128
-0.062542654
-0.060456177
-0.058220193
-0.055858158
-0.053394176
-0.050852506
-0.048257056
-0.04563099
-0.04299638
-0.040373892
-0.037782503
-0.035239297
-0.032759306
-0.030355408
-0.028038287
-0.025816437
-0.02369621
-0.021681907
-0.019775902
-0.017978782
-0.016289514
-0.014705618
-0.013223335
-0.011837799
-0.010543169
-0.0093327593
-0.0081990272
-0.0071336613
-0.0061269772
-0.0051679661
-0.004243479
-0.0033266283
-0.0024372788
-0.0013221618
-0.0009687619
-0.058044964
-0.0590722
-0.06017295
-0.061428724
-0.06249541
-0.063262403
-0.063776485
-0.064068957
-0.064131528
-0.063952385
-0.06353128
-0.06287453
-0.061989995
-0.060886969
-0.059577274
-0.058075382
-0.056397908
-0.054563146
-0.052590726
-0.050501292
-0.048316149
-0.04605681
-0.043744576
-0.041400181
-0.039043455
-0.036693022
-0.034366047
-0.032078024
-0.029842626
-0.027671601
-0.02557472
-0.02355977
-0.021632593
-0.019797154
-0.018055647
-0.016408617
-0.014855102
-0.013392777
-0.012018095
-0.010726413
-0.0095120917
-0.0083685096
-0.0072880344
-0.0062618132
-0.0052787483
-0.0043282596
-0.0033795548
-0.0024700581
-0.0013177688
-0.0010097377
-0.050189874
-0.051289843
-0.052454661
-0.053751217
-0.054896514
-0.055796167
-0.056484811
-0.056985248
-0.057287839
-0.057379702
-0.057257355
-0.056922899
-0.056379965
-0.055633629
-0.054691361
-0.053563198
-0.052261384
-0.050800028
-0.049194847
-0.047462884
-0.045622191
-0.043691483
-0.041689741
-0.039635862
-0.037548318
-0.035444846
-0.033342166
-0.031255738
-0.029199563
-0.027186033
-0.025225824
-0.023327839
-0.021499191
-0.019745223
-0.018069569
-0.01647423
-0.014959684
-0.013524992
-0.012167921
-0.010885041
-0.0096718044
-0.0085225771
-0.0074305443
-0.0063877313
-0.0053834854
-0.0044091106
-0.0034331947
-0.0025021706
-0.0013298669
-0.0010235505
-0.04309994
-0.044224761
-0.045408472
-0.046705999
-0.047885275
-0.048866302
-0.049674536
-0.050326315
-0.050811365
-0.051116387
-0.051235626
-0.051167957
-0.05091363
-0.050474221
-0.049853457
-0.049057441
-0.048094421
-0.046974551
-0.045709719
-0.044313345
-0.042800117
-0.0411857
-0.039486425
-0.037718953
-0.035899953
-0.0340458
-0.032172281
-0.030294336
-0.028425827
-0.026579351
-0.024766091
-0.022995709
-0.021276281
-0.01961427
-0.018014539
-0.016480384
-0.0150136
-0.013614562
-0.012282304
-0.0110146
-0.0098080261
-0.0086579821
-0.0075585851
-0.0065028076
-0.0054808294
-0.0044854373
-0.0034866691
-0.0025342779
-0.0013525571
-0.0010202361
-0.036727579
-0.037842903
-0.039012517
-0.040281542
-0.041460327
-0.042481592
-0.043363962
-0.044118972
-0.044736319
-0.045202884
-0.045511502
-0.045658756
-0.045642366
-0.045461168
-0.045115845
-0.044609175
-0.043945913
-0.043132646
-0.042177695
-0.04109099
-0.039883882
-0.038568915
-0.037159573
-0.035670007
-0.034114745
-0.032508403
-0.030865408
-0.029199733
-0.027524655
-0.025852542
-0.024194671
-0.022561084
-0.020960481
-0.01940015
-0.017885931
-0.016422213
-0.015011953
-0.013656718
-0.012356738
-0.011110957
-0.0099170706
-0.008771548
-0.0076695222
-0.0066049854
-0.0055692108
-0.0045562596
-0.0035387319
-0.0025663001
-0.0013808071
-0.0010080345
-0.031022635
-0.032104957
-0.033237547
-0.034457458
-0.035610336
-0.036640062
-0.03756023
-0.038378882
-0.03908616
-0.039669593
-0.040121341
-0.040436516
-0.040611098
-0.040641928
-0.040527357
-0.040267504
-0.039864215
-0.039321004
-0.038643018
-0.037836981
-0.036911079
-0.035874801
-0.034738747
-0.033514419
-0.03221398
-0.030850001
-0.029435202
-0.027982211
-0.026503316
-0.025010244
-0.023513963
-0.022024512
-0.020550858
-0.019100792
-0.01768085
-0.016296271
-0.014950979
-0.013647584
-0.012387401
-0.011170474
-0.0099955921
-0.0088603014
-0.0077608023
-0.0066921671
-0.0056469188
-0.0046202976
-0.0035879048
-0.0025975861
-0.0014108398
-0.00099267391
-0.025934686
-0.026969024
-0.028049754
-0.029207255
-0.030316541
-0.031331213
-0.03226118
-0.033111979
-0.033874519
-0.034537319
-0.035092433
-0.035534184
-0.035857491
-0.036057882
-0.03613205
-0.036078111
-0.035895621
-0.035585575
-0.035150423
-0.034594075
-0.033921848
-0.033140371
-0.032257463
-0.031281972
-0.030223602
-0.029092706
-0.027900061
-0.026656648
-0.025373432
-0.02406114
-0.022730058
-0.02138985
-0.020049396
-0.018716652
-0.01739855
-0.016100912
-0.014828401
-0.013584483
-0.012371417
-0.011190244
-0.010040785
-0.0089216427
-0.0078301002
-0.0067623445
-0.005712221
-0.004676107
-0.0036326311
-0.0026271368
-0.0014401396
-0.0009773675
-0.021414923
-0.022392836
-0.023413217
-0.024500859
-0.025555247
-0.026538385
-0.027457476
-0.028316274
-0.029106646
-0.029818298
-0.030443599
-0.030976603
-0.031411723
-0.03174375
-0.031968317
-0.032082146
-0.032083098
-0.031970212
-0.031743763
-0.0314053
-0.030957655
-0.030404899
-0.02975228
-0.029006119
-0.028173693
-0.027263078
-0.026282981
-0.025242543
-0.024151153
-0.023018245
-0.021853105
-0.020664688
-0.019461446
-0.018251178
-0.0170409
-0.015836737
-0.014643839
-0.013466316
-0.012307193
-0.01116838
-0.010050636
-0.0089535598
-0.0078754998
-0.0068137576
-0.0057635084
-0.0047222377
-0.0036714174
-0.0026538151
-0.001467186
-0.00096334626
-0.017417255
-0.018335222
-0.019291629
-0.02030654
-0.02129986
-0.022240825
-0.023134624
-0.023983739
-0.024781066
-0.025517594
-0.026186271
-0.02678126
-0.027296888
-0.027727663
-0.028068653
-0.028315712
-0.028465545
-0.028515771
-0.028465
-0.028312905
-0.028060259
-0.027708947
-0.027261943
-0.026723266
-0.026097906
-0.025391724
-0.024611335
-0.023763952
-0.022857233
-0.021899112
-0.020897624
-0.019860737
-0.018796181
-0.017711293
-0.016612876
-0.015507075
-0.014399269
-0.013293982
-0.01219481
-0.011104365
-0.010024221
-0.008954887
-0.0078957153
-0.0068450865
-0.0057994629
-0.0047574009
-0.0037029529
-0.0026765159
-0.0014910991
-0.00095061952
-0.013899782
-0.014757817
-0.015650203
-0.016592931
-0.017522981
-0.018415791
-0.019275024
-0.020102231
-0.020891332
-0.021634597
-0.022325704
-0.022959168
-0.023529525
-0.02403133
-0.024459474
-0.024809367
-0.025077017
-0.025259092
-0.025353015
-0.025357042
-0.025270333
-0.025092982
-0.024826044
-0.024471528
-0.024032363
-0.023512354
-0.022916102
-0.022248903
-0.02151663
-0.020725602
-0.019882436
-0.018993902
-0.018066768
-0.017107652
-0.016122878
-0.015118347
-0.014099411
-0.013070773
-0.012036389
-0.010999394
-0.0099620267
-0.0089255859
-0.0078903368
-0.0068556667
-0.0058192442
-0.004780642
-0.0037262199
-0.0026942976
-0.001511353
-0.00093867359
-0.010824852
-0.011625601
-0.01245662
-0.013330358
-0.014198091
-0.015040546
-0.015860202
-0.016657907
-0.017428539
-0.018165583
-0.018863501
-0.019517301
-0.020121903
-0.02067214
-0.021162997
-0.021589765
-0.021948114
-0.022234155
-0.022444534
-0.022576512
-0.022628047
-0.022597847
-0.022485416
-0.022291081
-0.022016001
-0.021662148
-0.021232274
-0.020729859
-0.020159031
-0.019524467
-0.018831291
-0.018084946
-0.017291071
-0.016455365
-0.015583455
-0.014680764
-0.01375239
-0.012802988
-0.011836666
-0.010856891
-0.0098664005
-0.008867141
-0.0078601691
-0.0068457768
-0.0058227295
-0.0047915408
-0.003740622
-0.0027065014
-0.0015276341
-0.00092694798
-0.0081603583
-0.0089080112
-0.0096819888
-0.010491607
-0.011300102
-0.012092702
-0.012870945
-0.013635121
-0.014380967
-0.015103075
-0.015796678
-0.016457332
-0.017080437
-0.01766123
-0.018194968
-0.018677048
-0.019103069
-0.01946889
-0.019770709
-0.020005149
-0.020169332
-0.020260946
-0.020278306
-0.020220397
-0.020086911
-0.019878259
-0.019595575
-0.01924069
-0.018816102
-0.018324909
-0.017770743
-0.017157677
-0.016490128
-0.015772746
-0.015010299
-0.014207554
-0.013369158
-0.012499522
-0.011602709
-0.010682332
-0.0097414577
-0.0087825246
-0.0078072406
-0.0068166779
-0.0058105683
-0.0047902736
-0.0037460208
-0.0027127939
-0.0015397739
-0.00091505239
-0.0058815482
-0.0065818848
-0.0073047708
-0.0080568388
-0.0088112655
-0.0095570512
-0.010294968
-0.011024854
-0.011743183
-0.012445519
-0.013127806
-0.013786145
-0.014416438
-0.015014384
-0.015575607
-0.016095748
-0.016570514
-0.016995726
-0.017367392
-0.017681773
-0.017935461
-0.018125446
-0.018249176
-0.018304619
-0.018290311
-0.018205391
-0.01804963
-0.017823435
-0.017527849
-0.017164525
-0.016735687
-0.016244076
-0.015692878
-0.015085642
-0.014426192
-0.01371852
-0.012966682
-0.012174689
-0.011346397
-0.010485403
-0.0095949353
-0.0086777726
-0.0077361257
-0.0067717074
-0.0057850729
-0.0047783234
-0.0037432782
-0.0027135806
-0.0015480333
-0.00090298498
-0.0039639528
-0.0046227855
-0.0053008027
-0.0060022079
-0.006708382
-0.0074114842
-0.0081116628
-0.0088083706
-0.0094986947
-0.010179024
-0.010845928
-0.011496007
-0.012125644
-0.012730996
-0.013308086
-0.013852866
-0.014361253
-0.01482917
-0.015252604
-0.015627662
-0.015950639
-0.016218079
-0.01642684
-0.016574155
-0.016657689
-0.016675591
-0.016626533
-0.016509745
-0.016325035
-0.01607279
-0.01575397
-0.01537008
-0.014923136
-0.014415607
-0.013850349
-0.013230526
-0.012559523
-0.011840844
-0.011078016
-0.01027448
-0.0094334913
-0.0085580195
-0.0076506337
-0.0067135451
-0.0057479829
-0.0047566693
-0.0037327992
-0.0027088441
-0.0015521909
-0.00089054987
-0.0024127979
-0.0030378887
-0.0036790369
-0.0043386555
-0.0050046649
-0.0056717094
-0.006339423
-0.0070069461
-0.0076718565
-0.0083312105
-0.0089820975
-0.0096215419
-0.010246347
-0.010853085
-0.011438159
-0.011997839
-0.012528291
-0.013025612
-0.013485868
-0.013905147
-0.014279611
-0.014605556
-0.014879466
-0.015098079
-0.015258443
-0.015357974
-0.015394514
-0.015366367
-0.015272343
-0.015111789
-0.014884599
-0.014591218
-0.01423263
-0.013810323
-0.013326258
-0.012782803
-0.012182669
-0.011528825
-0.010824409
-0.010072632
-0.0092766725
-0.0084395825
-0.0075641638
-0.0066529931
-0.0057078285
-0.0047318888
-0.003719527
-0.0027021875
-0.0015547562
-0.00087925035
-0.0011851758
-0.0017825464
-0.0023935497
-0.0030189371
-0.0036517487
-0.0042886202
-0.0049287862
-0.0055711247
-0.0062135847
-0.006853743
-0.0074890998
-0.0081170223
-0.0087346582
-0.0093389298
-0.0099265663
-0.010494128
-0.011038025
-0.011554544
-0.01203988
-0.012490174
-0.01290156
-0.013270215
-0.013592409
-0.013864567
-0.014083322
-0.014245582
-0.014348583
-0.014389943
-0.014367722
-0.014280454
-0.014127184
-0.013907489
-0.013621486
-0.01326983
-0.012853695
-0.012374732
-0.011835023
-0.011237015
-0.01058344
-0.0098772316
-0.009121422