/*--------------------------------*- C++ -*----------------------------------*\
  =========                 |
  \\      /  F ield         | OpenFOAM: The Open Source CFD Toolbox
   \\    /   O peration     | Website:  https://openfoam.org
    \\  /    A nd           | Version:  6
     \\/     M anipulation  |
\*---------------------------------------------------------------------------*/
FoamFile
{
    version     2.0;
    format      ascii;
    class       volScalarField;
    location    "52";
    object      pPrime2Mean;
}
// * * * * * * * * * * * * * * * * * * * * * * * * * * * * * * * * * * * * * //

dimensions      [0 4 -4 0 0 0 0];

internalField   nonuniform List<scalar> 
9200
(
0.21362175
0.17683419
0.14570234
0.12546346
0.10933467
0.095761872
0.084066618
0.073904156
0.065045229
0.057305769
0.050532882
0.044598007
0.039392212
0.034822677
0.030810031
0.027286439
0.024194583
0.021486941
0.019130753
0.017086978
0.17257967
0.14251344
0.11738503
0.10090056
0.087704941
0.076575243
0.066977747
0.058641118
0.051382482
0.045053738
0.039530641
0.034707605
0.030494199
0.026812514
0.023595208
0.020784099
0.018329335
0.016188359
0.014323463
0.012681385
0.13410741
0.11050088
0.091007166
0.078057184
0.067618446
0.058780659
0.05114837
0.044520723
0.038759931
0.033752369
0.029400658
0.02562022
0.022337078
0.019486292
0.017010844
0.014860856
0.012993042
0.011369753
0.009954135
0.0086972711
0.099277623
0.08166507
0.067268157
0.057532474
0.049599292
0.042842142
0.036993285
0.031917321
0.027518409
0.023714197
0.020430993
0.01760225
0.015167907
0.013074044
0.011272715
0.0097217715
0.0083845949
0.0072293174
0.0062247355
0.0053337955
0.069057948
0.056787597
0.046812419
0.039884144
0.034140017
0.029200219
0.024910317
0.021193117
0.017989642
0.015244038
0.012902004
0.01091148
0.0092236743
0.0077939896
0.0065826667
0.005555062
0.0046815342
0.0039368362
0.0032974568
0.0027387828
0.04430138
0.036550088
0.030212025
0.0256113
0.021684325
0.01825447
0.015262519
0.012679871
0.010477423
0.0086197707
0.0070670971
0.0057781938
0.0047131396
0.0038352456
0.0031122084
0.0025165322
0.0020253746
0.0016199786
0.0012841861
0.0010031892
0.025720653
0.021517195
0.017953312
0.015142751
0.012616446
0.010353163
0.0083674868
0.0066676439
0.005245973
0.0040808568
0.00314205
0.0023958996
0.0018093079
0.0013522509
0.00099902251
0.00072851471
0.00052387642
0.00037190536
0.00026231409
0.00018695588
0.013869272
0.012124512
0.010426899
0.0088275881
0.0072516705
0.0057832973
0.0044868102
0.0033940114
0.0025095919
0.0018191389
0.0012975268
0.0009158239
0.00064594536
0.00046321417
0.00034733846
0.00028237487
0.00025616215
0.0002596642
0.00028660986
0.00033276876
0.0091258883
0.0086667102
0.0079124076
0.006918923
0.0058215567
0.0047582464
0.0038163407
0.0030368024
0.0024275933
0.0019756669
0.0016574377
0.0014464653
0.0013180488
0.0012513714
0.0012300117
0.0012415689
0.0012769327
0.0013296042
0.0013954069
0.0014717588
0.011676567
0.011286185
0.010559457
0.0095552418
0.0084561852
0.0073999148
0.0064680845
0.0056963925
0.0050879385
0.0046264227
0.0042871048
0.0040441772
0.0038746381
0.0037597257
0.0036849694
0.003639576
0.0036156429
0.0036074811
0.0036111512
0.0036237903
0.51218373
0.43063456
0.35580046
0.30850066
0.27096175
0.23946974
0.21236876
0.18876531
0.16810639
0.1499573
0.13396278
0.11982871
0.10730875
0.096194677
0.08630924
0.077500679
0.069638469
0.062605832
0.056293253
0.050637472
0.50560728
0.42468492
0.35071268
0.3039592
0.26689317
0.2358049
0.20905318
0.18575934
0.16537683
0.14747517
0.13170255
0.1177677
0.10542678
0.094473699
0.08473312
0.076055018
0.068310567
0.061384683
0.055167317
0.049597476
0.49219642
0.41290617
0.34079512
0.29521034
0.25911228
0.2288423
0.20279462
0.18011831
0.16028133
0.1428637
0.12752189
0.11397144
0.10197414
0.091328746
0.081864056
0.073433721
0.06591239
0.05918833
0.053151965
0.047743731
0.47218767
0.39558545
0.32633484
0.28252612
0.2478656
0.21880546
0.19379804
0.17203155
0.15299571
0.13628683
0.12157441
0.10858453
0.097087685
0.086889991
0.0778265
0.069756245
0.062558752
0.056127113
0.05035389
0.045179417
0.44612937
0.37321535
0.30775134
0.26628187
0.23349017
0.20599868
0.18234025
0.16175235
0.14375281
0.1279595
0.11405919
0.10179196
0.090939887
0.081318733
0.0727717
0.065164698
0.058383178
0.052326181
0.046891087
0.042017317
0.41476601
0.3464478
0.28558826
0.24695678
0.21641322
0.19080512
0.16876654
0.14959299
0.13283598
0.11813948
0.10521127
0.093808517
0.083727387
0.074795367
0.066865497
0.059811873
0.053526656
0.047915417
0.042883356
0.038370221
0.3790005
0.31606393
0.26048859
0.22511223
0.19713257
0.17366915
0.15347504
0.13591094
0.12056675
0.1071164
0.09529185
0.084870007
0.075663345
0.067512965
0.060283299
0.053857868
0.048136286
0.043030737
0.038456478
0.034356547
0.33986114
0.28294627
0.23317378
0.20137428
0.17620098
0.15508221
0.13690403
0.12109767
0.10729519
0.095203543
0.084581453
0.075227789
0.066973262
0.05967427
0.053208123
0.047469099
0.042365354
0.037816073
0.033748062
0.030110495
0.29846459
0.24804632
0.20441857
0.17641203
0.15420726
0.13556649
0.1195179
0.10556654
0.093389414
0.082728823
0.073372261
0.065142277
0.057889353
0.051486572
0.045825434
0.040812333
0.036365555
0.032412888
0.028894941
0.02576701
0.25597563
0.21235845
0.17502413
0.15090956
0.13174928
0.11564964
0.10178413
0.089732557
0.079218445
0.0700209
0.061957344
0.054874988
0.048644917
0.04315766
0.038319754
0.034050969
0.030282255
0.026955043
0.024029008
0.021459751
0.044665511
0.038705493
0.033644851
0.029244733
0.02547983
0.022249631
0.019467141
0.017057811
0.014961061
0.013127715
0.01151796
0.010099851
0.0088476621
0.0077403722
0.0067605315
0.0058934436
0.0051265458
0.0044489484
0.0038511022
0.0033245533
0.0028617602
0.0024559546
0.002101035
0.0017914826
0.0015222969
0.0012889437
0.0010873123
0.00091368007
0.00076468218
0.00063728431
0.00052875843
0.00043665989
0.00035880628
0.00029325669
0.00023829258
0.00019239848
0.00015424454
0.00012266848
9.6660609e-05
7.5345101e-05
5.7973461e-05
4.3889473e-05
3.2573084e-05
2.3485163e-05
1.6410138e-05
1.063969e-05
6.7518343e-06
3.0439309e-06
4.4674233e-06
7.773213e-06
0.043793837
0.03803549
0.03312237
0.028835716
0.025163894
0.022008683
0.019284084
0.016918471
0.014854444
0.013045392
0.011453643
0.010049019
0.0088071028
0.0077077782
0.0067342147
0.0058721407
0.0051092865
0.0044349697
0.0038397927
0.0033154176
0.0028543933
0.0024500249
0.0020962703
0.0017876603
0.0015192349
0.0012864937
0.0010853539
0.00091211599
0.00076343385
0.00063628863
0.00052796481
0.00043602784
0.00035830345
0.00029285726
0.00023797592
0.00019214812
0.00015404729
0.00012251378
9.6539991e-05
7.5251769e-05
5.7901965e-05
4.3835457e-05
3.253312e-05
2.3456542e-05
1.6390989e-05
1.062798e-05
6.7482563e-06
3.0399675e-06
4.4398174e-06
7.6152057e-06
0.042256008
0.036861473
0.032215856
0.028137604
0.024633382
0.021610887
0.018987006
0.016695932
0.014686584
0.012917406
0.011354763
0.0099716526
0.0087459466
0.007659074
0.0066952406
0.0058408751
0.005084187
0.0044148305
0.0038236537
0.0033025052
0.0028440803
0.002441801
0.0020897209
0.0017824492
0.0015150905
0.0012831975
0.0010827308
0.00091002634
0.00076176689
0.00063495671
0.00052689881
0.00043517337
0.00035761774
0.00029230665
0.00023753388
0.00019179364
0.00015376369
0.00012228771
9.6360742e-05
7.5110688e-05
5.7792063e-05
4.3751067e-05
3.2469794e-05
2.3410634e-05
1.6360221e-05
1.0609239e-05
6.7436053e-06
3.0336846e-06
4.3842389e-06
7.3067417e-06
0.040143636
0.035252908
0.030987146
0.02720963
0.023940549
0.021098749
0.01860894
0.016414982
0.014475584
0.012756923
0.011231072
0.0098751975
0.0086700654
0.0075990278
0.0066475649
0.0058029705
0.0050540556
0.0043909054
0.0038046884
0.0032874994
0.0028322285
0.0024324535
0.0020823549
0.0017766457
0.0015105153
0.0012795852
0.0010798718
0.00090775645
0.00075995777
0.00063350871
0.00052573479
0.0004342338
0.00035685665
0.00029168854
0.00023703116
0.00019138479
0.0001534317
0.00012201905
9.61445e-05
7.4937997e-05
5.7655681e-05
4.3645026e-05
3.238938e-05
2.3351878e-05
1.6320761e-05
1.0585433e-05
6.7383096e-06
3.0261944e-06
4.3002562e-06
6.8638132e-06
0.037550221
0.033282616
0.029501532
0.026113505
0.023138817
0.020513827
0.018180308
0.016097259
0.014236655
0.012574803
0.011090686
0.0097660519
0.0085847336
0.007532121
0.0065950614
0.0057617969
0.0050218224
0.0043657311
0.0037850793
0.0032722651
0.0028204195
0.0024233145
0.0020752866
0.0017711757
0.0015062734
0.0012762833
0.0010772879
0.00090572016
0.00075833974
0.00063221136
0.00052468496
0.0004333769
0.00035615201
0.00029110582
0.00023654758
0.00019098301
0.00015309831
0.00012174344
9.5918095e-05
7.4753713e-05
5.7507604e-05
4.3528121e-05
3.2299616e-05
2.328571e-05
1.6276165e-05
1.0558908e-05
6.7327763e-06
3.0188627e-06
4.1882997e-06
6.3098214e-06
0.034559554
0.03101912
0.027819816
0.024901198
0.022268407
0.019883267
0.017717753
0.015752957
0.01397656
0.012376111
0.010937883
0.0096481346
0.008493638
0.0074618135
0.0065409371
0.0057202846
0.0049901264
0.0043416528
0.003766886
0.0032585915
0.0028101933
0.0024156972
0.0020696269
0.0017669715
0.0015031416
0.001273935
0.0010755073
0.00090434876
0.0007572626
0.00063134651
0.00052397495
0.00043278213
0.00035564561
0.00029066979
0.00023616985
0.00019065541
0.00015281504
0.00012150014
9.5711177e-05
7.458002e-05
5.736425e-05
4.3412351e-05
3.2209097e-05
2.3218156e-05
1.6230316e-05
1.0532185e-05
6.7273009e-06
3.0130966e-06
4.0494374e-06
5.6731752e-06
0.031254763
0.028532087
0.025997285
0.023605531
0.021343537
0.01920978
0.017218704
0.015378959
0.013694007
0.012161677
0.010775072
0.0095248082
0.0084006003
0.0073920239
0.0064889735
0.0056819453
0.0049621454
0.0043214918
0.0037525762
0.0032486119
0.002803375
0.0024111496
0.0020666782
0.0017651211
0.0015020227
0.0012732838
0.001075139
0.00090413782
0.00075712715
0.00063123639
0.00052386224
0.00043265399
0.00035549886
0.00029050701
0.00023599656
0.00019047823
0.00015264043
0.00012133372
9.555738e-05
7.4442035e-05
5.724415e-05
4.3311177e-05
3.2127387e-05
2.3155824e-05
1.6187395e-05
1.05079e-05
6.722119e-06
3.0102273e-06
3.8854564e-06
4.9846598e-06
0.027737279
0.025901195
0.024076694
0.022223233
0.020337054
0.018464611
0.016661758
0.014962492
0.013383624
0.011931391
0.010605254
0.0094006131
0.0083107227
0.0073278442
0.0064439343
0.0056510618
0.0049416297
0.0043084717
0.003744883
0.0032446179
0.0028018694
0.0024112428
0.0020677273
0.0017666719
0.0015037641
0.0012750117
0.0010767286
0.00090552121
0.00075827642
0.00063215055
0.00052455732
0.00043315572
0.00035583746
0.00029071355
0.00023610055
0.00019050622
0.0001526152
0.00012127415
9.5478498e-05
7.4355394e-05
5.7158335e-05
4.3232234e-05
3.205959e-05
2.3102014e-05
1.614917e-05
1.0487038e-05
6.7164121e-06
3.0109073e-06
3.698719e-06
4.2752766e-06
0.024104145
0.023165881
0.022019134
0.020657074
0.019142495
0.017561023
0.015984065
0.014458903
0.013013222
0.011661645
0.010410735
0.0092619238
0.0082132523
0.0072606291
0.0063987732
0.0056218367
0.0049237838
0.0042986179
0.003740513
0.003243886
0.0028034306
0.0024141308
0.002071262
0.0017703887
0.0015073592
0.0012783002
0.0010796114
0.00090795965
0.00076027315
0.00063373456
0.00052577293
0.00043405463
0.00035647306
0.00029113717
0.00023635906
0.0001906407
0.00015266045
0.00012125873
9.5425143e-05
7.4281601e-05
5.7077207e-05
4.3153144e-05
3.1989121e-05
2.3044765e-05
1.6107131e-05
1.0463963e-05
6.7057226e-06
3.013707e-06
3.4927812e-06
3.576799e-06
0.020478016
0.020244691
0.019639749
0.018732743
0.017624986
0.016396381
0.015106004
0.013804689
0.012530921
0.01130976
0.010156568
0.0090802786
0.0080850831
0.0071716715
0.0063383873
0.0055821096
0.0048988441
0.0042841156
0.0037332335
0.0032414642
0.0028041398
0.0024167249
0.0020748577
0.0017743757
0.0015113312
0.0012820025
0.0010828994
0.00091076753
0.00076258916
0.00063558234
0.00052719752
0.00043511221
0.00035722357
0.00029163931
0.00023666708
0.00019080257
0.00015271704
0.0001212437
9.5365322e-05
7.4197651e-05
5.698457e-05
4.306277e-05
3.1908573e-05
2.2979213e-05
1.6058238e-05
1.0436416e-05
6.688573e-06
3.017343e-06
3.2757751e-06
2.9218585e-06
0.016515536
0.016723922
0.016568425
0.016093952
0.01541215
0.014580703
0.013638335
0.012630144
0.011598162
0.010573467
0.009577876
0.0086268073
0.0077304742
0.0068947811
0.0061224121
0.0054137871
0.0047677545
0.0041820941
0.0036538908
0.0031798036
0.002756255
0.0023795629
0.0020460334
0.0017520271
0.0014940066
0.0012685713
0.001072483
0.00090268422
0.00075631113
0.00063070169
0.0005233995
0.00043215417
0.00035491853
0.0002898431
0.00023526835
0.00018971515
0.00015187397
0.00012059278
9.4865654e-05
7.381716e-05
5.6697847e-05
4.2850253e-05
3.1753787e-05
2.2872288e-05
1.5984649e-05
1.0399776e-05
6.6583832e-06
3.0229088e-06
3.0517737e-06
2.3459795e-06
0.01278626
0.013206991
0.013318495
0.013146753
0.012787827
0.012282821
0.011652757
0.010932191
0.01015858
0.0093614305
0.0085630234
0.0077807582
0.0070276546
0.0063126837
0.0056415503
0.005017493
0.0044418937
0.003914751
0.00343506
0.003001108
0.0026106958
0.002261303
0.0019502129
0.0016746069
0.0014316359
0.0012184765
0.0010323738
0.000870674
0.00073085045
0.00061052151
0.00050746364
0.00041961916
0.00034509986
0.000282187
0.00022932818
0.00018513178
0.00014835951
0.00011791718
9.2845585e-05
7.2307232e-05
5.5582569e-05
4.2039803e-05
3.1174792e-05
2.2474243e-05
1.5713183e-05
1.0243868e-05
6.5437558e-06
3.0030294e-06
2.7724596e-06
1.8025524e-06
0.009588842
0.010134285
0.01043117
0.010494627
0.010389117
0.010144981
0.0097739311
0.0093003545
0.0087550255
0.0081641791
0.007548837
0.0069265932
0.0063117408
0.0057151354
0.0051446149
0.0046055878
0.0041015142
0.003634303
0.0032046581
0.0028123679
0.0024565359
0.0021357629
0.001848291
0.0015921181
0.0013650886
0.001164966
0.00098949082
0.00083642689
0.00070359776
0.00058891509
0.00049039995
0.000406198
0.00033458943
0.0002739944
0.00022297468
0.00018023214
0.00014460477
0.00011506042
9.0690021e-05
7.0696888e-05
5.4393574e-05
4.1175984e-05
3.0557367e-05
2.2049672e-05
1.5421894e-05
1.0077235e-05
6.4144333e-06
2.9859646e-06
2.4725911e-06
1.2961046e-06
0.0069032528
0.0075037972
0.0079124369
0.0081400381
0.0082204711
0.0081745157
0.0080094666
0.0077410376
0.0073920243
0.0069839791
0.006535366
0.006062512
0.0055795593
0.0050980578
0.0046270374
0.0041733489
0.0037419886
0.0033363887
0.0029586941
0.0026100162
0.0022906479
0.0020002442
0.001737971
0.0015026294
0.0012927576
0.0011067152
0.00094275217
0.00079906612
0.0006738481
0.00056531981
0.0004717627
0.00039154013
0.0003231135
0.00026505313
0.00021604467
0.00017489175
0.0001405156
0.00011195191
8.8346581e-05
6.8947635e-05
5.3102922e-05
4.0238631e-05
2.9887325e-05
2.1588148e-05
1.510416e-05
9.8935501e-06
6.2688503e-06
2.9665093e-06
2.1741916e-06
8.6675066e-07
0.004744143
0.0053315284
0.00578383
0.0061062761
0.0063087945
0.006402309
0.0063910048
0.0062838968
0.0060959786
0.0058433276
0.005540948
0.0052028581
0.004841897
0.0044692268
0.0040941468
0.0037241906
0.0033652862
0.0030219249
0.0026973489
0.0023937444
0.0021124205
0.0018539694
0.0016184062
0.0014052906
0.0012138319
0.0010429772
0.00089148807
0.00075800348
0.0006410935
0.00053930313
0.00045118797
0.00037534259
0.00031042224
0.00025515895
0.00020837252
0.00016897734
0.00013598558
0.00010850736
8.5749032e-05
6.7007914e-05
5.1670911e-05
3.9197495e-05
2.9142062e-05
2.1072794e-05
1.4748214e-05
9.6836455e-06
6.1026767e-06
2.9392013e-06
1.8898287e-06
5.3575016e-07
0.003089624
0.0036114045
0.0040509828
0.0044072681
0.004674545
0.0048546706
0.0049483563
0.0049594097
0.0048961439
0.0047691229
0.0045893887
0.0043680018
0.0041157055
0.0038424185
0.0035569016
0.0032666597
0.0029779491
0.0026958284
0.0024242491
0.0021661746
0.0019237078
0.0016982161
0.0014904491
0.0013006473
0.0011286399
0.00097393142
0.00083577835
0.00071325533
0.00060531227
0.00051082276
0.00042862448
0.00035755243
0.00029646544
0.00024426669
0.00019991908
0.00016245589
0.00013098748
0.00010470467
8.2879715e-05
6.4863741e-05
5.0086568e-05
3.8043957e-05
2.8314914e-05
2.0498202e-05
1.4350214e-05
9.4436246e-06
5.9149828e-06
2.9000254e-06
1.6292569e-06
3.1091165e-07
0.0018863689
0.0023116725
0.0026984082
0.0030406259
0.0033247076
0.0035458273
0.0037010862
0.0037901326
0.0038159874
0.003784261
0.0037019969
0.0035770189
0.0034175128
0.0032315669
0.0030267744
0.0028100047
0.0025872907
0.0023637785
0.0021437282
0.001930556
0.0017269021
0.0015347119
0.001355321
0.0011895417
0.0010377457
0.00089994148
0.00077584591
0.00066494819
0.00056656709
0.00047990085
0.00040407017
0.00033815449
0.00028122199
0.00023235385
0.00019066306
0.0001553086
0.00012550548
0.00010053102
7.9728483e-05
6.2507235e-05
4.8343841e-05
3.6773341e-05
2.7402312e-05
1.9861381e-05
1.3908149e-05
9.1709815e-06
5.7061317e-06
2.8454122e-06
1.3991203e-06
1.870735e-07
0.0010663117
0.0013829808
0.001693348
0.0019888233
0.0022535534
0.0024789671
0.0026592809
0.0027910031
0.0028732534
0.002907608
0.0028974799
0.0028475438
0.0027633063
0.0026507092
0.0025157591
0.0023642343
0.0022014897
0.0020323324
0.0018609503
0.0016908861
0.001525046
0.0013657329
0.0012146943
0.0010731791
0.0009419996
0.00082159295
0.00071208245
0.00061333482
0.00052501347
0.00044662674
0.00037757079
0.00031716701
0.00026469389
0.00021941362
0.00018059366
0.0001475237
0.00011952847
9.5976736e-05
7.6287394e-05
5.9932124e-05
4.6437916e-05
3.5381987e-05
2.6401541e-05
1.9160148e-05
1.3420711e-05
8.8640388e-06
5.4771631e-06
2.7726285e-06
1.2020724e-06
1.4716829e-07
0.00055762581
0.00076701492
0.00099160368
0.0012220712
0.0014436321
0.0016465064
0.0018233262
0.0019686127
0.0020788979
0.0021528009
0.0021907725
0.0021947099
0.0021676065
0.002113227
0.002035795
0.0019397136
0.001829335
0.0017087898
0.0015818662
0.0014519331
0.0013218981
0.0011941957
0.0010707972
0.00095323567
0.00084264238
0.00073978912
0.00064513415
0.00055886884
0.00048096335
0.00041121006
0.00034926363
0.00029467729
0.00024693469
0.00020547749
0.00016972846
0.00013911034
0.00011306079
9.1043638e-05
7.2557076e-05
5.7138587e-05
4.4368887e-05
3.3870027e-05
2.5312824e-05
1.8394715e-05
1.2888425e-05
8.5229147e-06
5.2301716e-06
2.6806505e-06
1.0372942e-06
1.6616913e-07
0.00029188216
0.00040404817
0.00054395059
0.00070282991
0.00086847332
0.0010316276
0.0011846732
0.0013213054
0.0014366534
0.0015274559
0.0015920275
0.0016300659
0.0016424258
0.0016308884
0.0015979242
0.0015464592
0.0014796619
0.0014007599
0.0013128944
0.0012190114
0.0011217846
0.0010235669
0.00092636623
0.0008318405
0.00074130759
0.00065576609
0.00057592357
0.00050222938
0.00043490987
0.00037400406
0.00031939842
0.00027085964
0.00022806471
0.00019062778
0.00015812346
0.00013010661
0.00010612852
8.5749861e-05
6.855044e-05
5.4136088e-05
4.2143896e-05
3.2242995e-05
2.4140527e-05
1.7568573e-05
1.2314265e-05
8.1499658e-06
4.9683529e-06
2.5704405e-06
9.015883e-07
2.1669849e-07
0.00020859251
0.00023823883
0.00030133132
0.00039037706
0.0004961413
0.00061083619
0.0007275854
0.00084022619
0.00094347152
0.0010331414
0.0011062552
0.0011609871
0.0011965629
0.0012131314
0.0012116129
0.0011935286
0.0011608293
0.0011157341
0.0010605852
0.00099772814
0.00092941585
0.00085773669
0.00078456449
0.00071152829
0.00063999847
0.00057108635
0.00050565406
0.00044433199
0.00038754149
0.00033552071
0.00028835188
0.00024598868
0.00020828253
0.00017500717
0.00014588081
0.00012058558
9.8784134e-05
8.0133334e-05
6.4295215e-05
5.0945182e-05
3.9778398e-05
3.0512691e-05
2.2893742e-05
1.6688875e-05
1.17039e-05
7.7499029e-06
4.6959348e-06
2.444899e-06
7.9072163e-07
2.7458402e-07
0.00025711812
0.00022049584
0.00021826981
0.00024445421
0.00029261279
0.00035675655
0.00043130095
0.00051087795
0.00059051099
0.00066586883
0.00073341934
0.00079047805
0.00083520107
0.00086654583
0.00088420053
0.00088848458
0.00088023073
0.00086066173
0.00083126972
0.00079370391
0.00074967281
0.00070086254
0.00064887249
0.00059516729
0.00054104464
0.00048761656
0.00043580237
0.00038633092
0.00033975013
0.00029644183
0.00025664006
0.00022045141
0.00018787603
0.00015882838
0.00013315688
0.00011066186
9.1111526e-05
7.42556e-05
5.9836717e-05
4.7599444e-05
3.7297446e-05
2.8697971e-05
2.1586733e-05
1.57666e-05
1.1065693e-05
7.329583e-06
4.4179127e-06
2.3083576e-06
7.0041199e-07
3.2270634e-07
0.00039672561
0.00030956816
0.00025476132
0.00022776101
0.00022448196
0.00024068494
0.00027224378
0.00031491217
0.00036447144
0.00041697395
0.00046891311
0.00051731613
0.00055979646
0.00059457923
0.00062049621
0.00063694936
0.000643849
0.00064153575
0.00063069436
0.00061226515
0.00058735821
0.00055717553
0.00052294319
0.00048585555
0.00044703145
0.00040748264
0.00036809292
0.00032960723
0.00029262876
0.00025762277
0.00022492537
0.00019475587
0.0001672314
0.00014238266
0.00012016981
0.00010049794
8.3231238e-05
6.820584e-05
5.5240864e-05
4.4147619e-05
3.4737137e-05
2.6825653e-05
2.023943e-05
1.4816738e-05
1.041071e-05
6.8977612e-06
4.1398704e-06
2.166005e-06
6.2693497e-07
3.5233971e-07
0.0005956635
0.00047201033
0.00037702764
0.00030739273
0.00026083957
0.00023462918
0.00022600507
0.00023190804
0.00024907537
0.00027424956
0.00030433448
0.00033649651
0.00036824221
0.00039748022
0.00042255987
0.00044228219
0.00045588578
0.00046301267
0.00046365958
0.00045811956
0.00044691856
0.00043075124
0.00041042034
0.00038678176
0.00036069761
0.00033299759
0.00030444966
0.00027573896
0.00024745498
0.00022008543
0.00019401594
0.00016953438
0.00014683851
0.00012604601
0.00010720581
9.0309973e-05
7.5305427e-05
6.2104989e-05
5.0597397e-05
4.0656029e-05
3.2146309e-05
2.4931614e-05
1.8878072e-05
1.3858541e-05
9.7527277e-06
6.4648073e-06
3.8678111e-06
2.02327e-06
5.6725171e-07
3.6207865e-07
0.00082980841
0.00068149181
0.00055749066
0.00045543825
0.00037437577
0.00031274122
0.00026892501
0.00024094987
0.00022651936
0.00022318169
0.00022845594
0.00023991949
0.00025528584
0.00027247812
0.00028968908
0.00030542111
0.00031850566
0.00032810433
0.00033369397
0.00033503875
0.00033215248
0.00032525461
0.00031472372
0.00030105136
0.00028479881
0.00026655842
0.00024692083
0.00022644856
0.00020565618
0.00018499673
0.00016485379
0.00014553843
0.00012729019
0.00011028121
9.4622508e-05
8.0371772e-05
6.754185e-05
5.6109357e-05
4.6022971e-05
3.7211061e-05
2.9588439e-05
2.3062149e-05
1.7536094e-05
1.2916019e-05
9.1084764e-06
6.0426508e-06
3.60822e-06
1.8854789e-06
5.1900821e-07
3.5533467e-07
0.0010812377
0.00091780435
0.00077427285
0.00064898581
0.00054185391
0.00045217247
0.0003792116
0.00032188409
0.00027875268
0.0002481499
0.00022827015
0.00021723341
0.00021314848
0.00021418085
0.00021861605
0.00022491125
0.00023173322
0.00023798232
0.0002428031
0.00024558197
0.0002459337
0.00024367897
0.00023881546
0.00023148524
0.00022194084
0.00021051196
0.0001975747
0.00018352426
0.00016875224
0.0001536285
0.00013848796
0.00012362176
0.00010927254
9.5633054e-05
8.2847573e-05
7.1015358e-05
6.0195528e-05
5.0412763e-05
4.1663355e-05
3.3921185e-05
2.7143347e-05
2.1275304e-05
1.6255103e-05
1.2018578e-05
8.4980113e-06
5.6448916e-06
3.3682486e-06
1.7577295e-06
4.8050057e-07
3.3756622e-07
0.0013369262
0.0011658012
0.0010104614
0.00086975808
0.00074412825
0.00063344856
0.0005376126
0.00045620678
0.00038848948
0.00033347446
0.00028999186
0.00025672713
0.00023226411
0.00021513791
0.00020388981
0.00019711758
0.00019351863
0.00019192499
0.00019132886
0.00019089825
0.00018998248
0.00018810853
0.00018496971
0.00018040808
0.00017439283
0.00016699619
0.00015836876
0.00014871565
0.00013827446
0.00012729628
0.00011602971
0.00010470864
9.354321e-05
8.2714175e-05
7.2369949e-05
6.2626052e-05
5.3566375e-05
4.5245789e-05
3.7693624e-05
3.0917625e-05
2.4908042e-05
1.9641721e-05
1.5085602e-05
1.1201576e-05
7.9451235e-06
5.2870623e-06
3.1560275e-06
1.6450224e-06
4.5075995e-07
3.1416599e-07
0.0015876364
0.0014143975
0.001253299
0.0011035512
0.00096586696
0.00084048658
0.00072770976
0.00062759396
0.00053991763
0.00046423643
0.00039992011
0.00034617041
0.00030204461
0.00026649075
0.00023838857
0.00021659063
0.00019996154
0.00018741386
0.00017793943
0.00017063414
0.0001647157
0.00015953372
0.00015457264
0.00014944812
0.000143898
0.000137769
0.00013100066
0.00012360775
0.0001156624
0.00010727697
9.8588497e-05
8.9745207e-05
8.0895448e-05
7.2179142e-05
6.3721692e-05
5.5630109e-05
4.7991089e-05
4.0870673e-05
3.4315127e-05
2.8352699e-05
2.2995925e-05
1.8244335e-05
1.4086967e-05
1.0506422e-05
7.4774874e-06
4.9867975e-06
2.9809022e-06
1.552463e-06
4.2963002e-07
2.8933206e-07
0.0018270144
0.0016556954
0.0014934042
0.0013396045
0.0011951138
0.0010603763
0.00093592862
0.0008221295
0.00071911675
0.00062684471
0.00054510418
0.00047352536
0.0004115857
0.00035862905
0.00031389179
0.00027653168
0.00024565811
0.00022036265
0.00019974873
0.00018295846
0.00016919559
0.00015774343
0.00014797735
0.00013937183
0.00013150211
0.00012404122
0.00011675306
0.00010948262
0.00010214414
9.4708374e-05
8.7189706e-05
7.9633866e-05
7.2106836e-05
6.4685267e-05
5.744864e-05
5.0473217e-05
4.38277e-05
3.7570445e-05
3.1748009e-05
2.639479e-05
2.153349e-05
1.7176288e-05
1.3326156e-05
9.9798388e-06
7.1262778e-06
4.7637203e-06
2.8534765e-06
1.4854303e-06
4.1777718e-07
2.6580284e-07
0.0020508708
0.0018842524
0.0017240737
0.0015699801
0.0014227855
0.0012830277
0.0011513573
0.0010283034
0.00091423037
0.00080936282
0.00071379535
0.00062748593
0.00055025315
0.00048178288
0.00042164168
0.00036929366
0.00032412026
0.0002854424
0.00025254422
0.00022469679
0.00020118073
0.00018130648
0.00016443139
0.00014997317
0.00013741912
0.00012633128
0.00011634765
0.00010718002
9.8608934e-05
9.0476523e-05
8.2677982e-05
7.5152341e-05
6.7873166e-05
6.0839722e-05
5.4068965e-05
4.7588622e-05
4.1431503e-05
3.5631066e-05
3.0218185e-05
2.5219008e-05
2.0653758e-05
1.6536391e-05
1.2874665e-05
9.671891e-06
6.9249577e-06
4.638805e-06
2.7852969e-06
1.4495633e-06
4.1654089e-07
2.4509514e-07
0.0022566179
0.0020964845
0.0019406831
0.001788995
0.0016421669
0.0015007591
0.0013654529
0.0012368536
0.0011154502
0.0010016334
0.00089569873
0.00079783561
0.0007081184
0.00062650471
0.00055283933
0.00048686121
0.0004282138
0.00037645826
0.00033108966
0.00029155477
0.00025727073
0.00022764358
0.00020208576
0.00018003175
0.00016095132
0.00014435979
0.00012982523
0.00011697251
0.00010548449
9.5100527e-05
8.5613028e-05
7.6862289e-05
6.8730379e-05
6.1134466e-05
5.402008e-05
4.7354669e-05
4.1121741e-05
3.5315756e-05
2.99379e-05
2.4992732e-05
2.0485708e-05
1.6421572e-05
1.2803254e-05
9.6324213e-06
6.9069802e-06
4.6330304e-06
2.7880856e-06
1.4504942e-06
4.2765221e-07
2.2790954e-07
0.0024428276
0.0022901839
0.0021401855
0.0019927206
0.0018484363
0.0017078734
0.0015716916
0.0014405089
0.0013148668
0.0011952429
0.0010820513
0.00097563061
0.00087623165
0.00078401167
0.00069903178
0.00062125708
0.00055055948
0.0004867233
0.00042945415
0.00037838996
0.00033311419
0.00029317003
0.00025807545
0.00022733779
0.00020046769
0.00017699147
0.00015646164
0.00013846505
0.0001226288
0.00010862359
9.6165019e-05
8.501279e-05
7.4968355e-05
6.5871349e-05
5.7595192e-05
5.0042269e-05
4.3139006e-05
3.6831135e-05
3.1079335e-05
2.5855424e-05
2.1139163e-05
1.6915789e-05
1.3174025e-05
9.9055891e-06
7.1021745e-06
4.7651587e-06
2.8724326e-06
1.4932717e-06
4.5285119e-07
2.1448583e-07
0.0026088834
0.0024641323
0.002320697
0.0021785548
0.0020382421
0.0019002572
0.0017652093
0.00163369
0.0015062451
0.0013833836
0.0012655774
0.0011532487
0.001046759
0.00094640021
0.00085238893
0.0007648625
0.00068387651
0.00060940494
0.0005413428
0.00047951124
0.0004236649
0.00037350119
0.00032867103
0.00028879052
0.00025345315
0.00022224165
0.00019473931
0.00017054003
0.00014925688
0.00013052894
0.00011402623
9.945278e-05
8.6547978e-05
7.5086383e-05
6.4876254e-05
5.5757121e-05
4.7596683e-05
4.0287335e-05
3.3742559e-05
2.7893437e-05
2.2685414e-05
1.8075508e-05
1.4029833e-05
1.0522403e-05
7.5317052e-06
5.0485489e-06
3.0459045e-06
1.5814564e-06
4.9343716e-07
2.0482501e-07
0.0027546925
0.0026177741
0.0024811386
0.0023448418
0.0022093098
0.0020749901
0.0019424274
0.0018121661
0.0016847272
0.0015606153
0.0014403175
0.001324293
0.0012129625
0.0011066994
0.0010058228
0.00091059156
0.00082119822
0.00073776611
0.00066034735
0.00058892331
0.00052340697
0.0004636474
0.00040943595
0.00036051404
0.0003165822
0.00027730978
0.00024234507
0.00021132522
0.00018388565
0.00015966849
0.00013832987
0.00011954578
0.00010301644
8.8469209e-05
7.5660108e-05
6.437407e-05
5.4424198e-05
4.5650198e-05
3.7916247e-05
3.1108522e-05
2.51326e-05
1.9910939e-05
1.5380422e-05
1.1490833e-05
8.2013328e-06
5.4868363e-06
3.310485e-06
1.7158543e-06
5.4974416e-07
1.9877726e-07
0.0028804769
0.0027509789
0.002620972
0.0024905856
0.0023601424
0.0022300383
0.0021007513
0.0019727697
0.0018465752
0.0017226469
0.0016014608
0.0014834812
0.0013691517
0.0012588877
0.0011530683
0.0010520304
0.00095606157
0.00086539435
0.00078020217
0.00070059635
0.00062662474
0.00055827225
0.00049546293
0.00043806389
0.00038589075
0.00033871426
0.00029626812
0.00025825731
0.00022436677
0.00019426994
0.00016763694
0.00014414191
0.00012346947
0.00010531997
8.9413612e-05
7.549327e-05
6.3326211e-05
5.2704763e-05
4.3446104e-05
3.5391359e-05
2.8404189e-05
2.2369106e-05
1.7189515e-05
1.2786374e-05
9.0948188e-06
6.0696288e-06
3.6599984e-06
1.8932389e-06
6.2066088e-07
1.9607311e-07
0.0029865021
0.0028637336
0.0027398585
0.0026150772
0.0024896196
0.0023638347
0.0022381376
0.0021129608
0.0019887412
0.0018659232
0.0017449573
0.0016262941
0.001510377
0.0013976351
0.0012884774
0.0011832854
0.0010824064
0.00098614756
0.00089476948
0.00080848197
0.00072743982
0.00065174067
0.00058142372
0.00051647044
0.00045680648
0.00040230532
0.00035279311
0.00030805471
0.00026784068
0.00023187475
0.00019986167
0.00017149489
0.00014646401
0.0001244615
0.00010518868
8.8360721e-05
7.3710543e-05
6.0991735e-05
4.9980407e-05
4.047614e-05
3.2302145e-05
2.5304811e-05
1.9352707e-05
1.4335778e-05
1.016253e-05
6.7649566e-06
4.0755368e-06
2.1039293e-06
7.0268508e-07
1.9614892e-07
0.0030730607
0.0029561103
0.0028376089
0.00271783
0.0025969211
0.0024751913
0.0023530012
0.0022307326
0.0021087799
0.0019875508
0.0018674652
0.0017489512
0.0016324386
0.0015183544
0.0014071163
0.0012991271
0.001194768
0.0010943925
0.0009983197
0.00090682896
0.00082015432
0.00073848051
0.00066193937
0.00059060803