/*--------------------------------*- C++ -*----------------------------------*\
  =========                 |
  \\      /  F ield         | OpenFOAM: The Open Source CFD Toolbox
   \\    /   O peration     | Website:  https://openfoam.org
    \\  /    A nd           | Version:  6
     \\/     M anipulation  |
\*---------------------------------------------------------------------------*/
FoamFile
{
    version     2.0;
    format      ascii;
    class       volVectorField;
    location    "52";
    object      U_0;
}
// * * * * * * * * * * * * * * * * * * * * * * * * * * * * * * * * * * * * * //

dimensions      [0 1 -1 0 0 0 0];

internalField   nonuniform List<vector> 
9200
(
(0.0010588763 0.0014096223 -5.9352686e-20)
(0.01376086 -0.0021033278 4.6178409e-20)
(0.038497046 -0.00594531 -3.8608847e-20)
(0.072584433 -0.0098764515 -6.0419154e-20)
(0.11422313 -0.013638085 1.8884914e-20)
(0.16220648 -0.016789272 3.2837363e-20)
(0.21547948 -0.019036673 -1.2308702e-20)
(0.27306773 -0.020229323 9.3004936e-21)
(0.33405844 -0.020303195 1.6846251e-20)
(0.39756835 -0.019258415 1.4891331e-21)
(0.46271999 -0.017147887 -2.1524646e-20)
(0.52863225 -0.014066372 2.0738594e-20)
(0.5944228 -0.010139655 -4.0548285e-20)
(0.65922054 -0.0055134817 -2.1212019e-20)
(0.72218649 -0.00034176548 5.9252095e-21)
(0.78254062 0.0052231349 -2.5237482e-20)
(0.83960812 0.011053837 2.5336309e-20)
(0.89294406 0.017196497 2.2402855e-20)
(0.94214983 0.023783813 -2.6838443e-22)
(0.98450732 0.027441128 -1.6297413e-21)
(0.0052853536 -0.0013641902 -1.7102652e-20)
(0.027088182 -0.0090526713 3.9857399e-20)
(0.061922748 -0.014913317 2.3641202e-20)
(0.10670133 -0.019312696 -1.159861e-19)
(0.15931704 -0.022389753 -1.2763556e-20)
(0.21830629 -0.023930392 7.3475304e-20)
(0.28234857 -0.023837693 -3.5570579e-20)
(0.35019035 -0.02214398 -8.412452e-21)
(0.4206322 -0.01895321 3.4384666e-20)
(0.49250473 -0.01442227 -4.339117e-20)
(0.56465709 -0.0087530762 -3.0442788e-20)
(0.63596364 -0.0021822544 7.2195727e-20)
(0.70534406 0.0050305442 3.8437494e-20)
(0.77179252 0.012614259 -6.8266084e-20)
(0.83441187 0.020296394 1.4696077e-20)
(0.89244719 0.027807741 -3.6912476e-20)
(0.94532761 0.034896571 -1.3829661e-20)
(0.99276735 0.041401974 7.139968e-20)
(1.0346354 0.046907997 2.9900172e-20)
(1.0691354 0.048271817 -8.3753246e-20)
(0.01090809 -0.0040668603 3.6858522e-20)
(0.044126966 -0.015509874 2.5099231e-21)
(0.090846097 -0.022674408 2.2404288e-20)
(0.14762402 -0.026656291 9.8345634e-22)
(0.21205512 -0.028078157 -4.0890477e-20)
(0.2823921 -0.027016965 1.8616097e-20)
(0.35701196 -0.023632677 1.3458426e-20)
(0.43434689 -0.018198969 -5.0464578e-20)
(0.51288761 -0.011041304 5.7429606e-20)
(0.59117844 -0.0025198503 1.4312537e-20)
(0.66782753 0.0069782331 -5.450343e-20)
(0.7415355 0.017052373 -1.8323233e-20)
(0.81113405 0.027305078 9.0464742e-21)
(0.87562701 0.03735831 2.3556542e-20)
(0.9342268 0.046867637 -1.1429753e-20)
(0.98637931 0.055531525 2.8016785e-20)
(1.0317787 0.063105858 -2.0280182e-20)
(1.0703991 0.069451385 -7.0521459e-20)
(1.1023731 0.07429533 -2.3952043e-20)
(1.1268446 0.075753151 4.8847283e-20)
(0.018026078 -0.0064515585 2.4560575e-20)
(0.065004533 -0.020783751 5.115707e-20)
(0.12526828 -0.028193271 1.9925827e-20)
(0.19509481 -0.030630271 1.3011433e-20)
(0.27179622 -0.029289088 1.731102e-20)
(0.35332243 -0.024607421 -4.7834834e-20)
(0.43772858 -0.017066686 -2.5714011e-20)
(0.52312922 -0.0072398082 0)
(0.60773025 0.0042793094 1.399467e-20)
(0.68985335 0.016895444 -5.9016107e-21)
(0.76797324 0.030023577 -9.8293676e-20)
(0.84076691 0.043108656 -1.5813856e-20)
(0.90716267 0.055647892 6.5414597e-20)
(0.966379 0.067210592 4.4733141e-22)
(1.0179461 0.077452919 -1.5803917e-21)
(1.0617055 0.086125465 2.2069894e-20)
(1.0977882 0.093080614 -5.3010717e-21)
(1.1265923 0.098301359 -6.1346713e-20)
(1.1486657 0.10176106 -4.6115397e-20)
(1.163981 0.10251145 6.9807038e-20)
(0.026669812 -0.0082378894 -3.924834e-21)
(0.089630129 -0.02412624 -5.1350156e-21)
(0.16481321 -0.03039771 5.6718364e-20)
(0.24832058 -0.029970584 1.8576178e-20)
(0.33721959 -0.024694682 -3.202695e-20)
(0.42916372 -0.015438842 1.2191322e-20)
(0.52190613 -0.0030667955 2.6476186e-21)
(0.61329566 0.011503229 3.372208e-20)
(0.70134735 0.027383336 5.6796125e-21)
(0.78430011 0.043742507 -1.3273216e-20)
(0.86067672 0.059824132 6.0444884e-20)
(0.92934081 0.07497108 -5.8225142e-20)
(0.989537 0.088649408 -1.3275646e-19)
(1.0409051 0.10046419 -5.6036003e-21)
(1.0834654 0.11016515 8.356719e-20)
(1.1175752 0.11764123 0)
(1.1438646 0.1229105 1.0163331e-20)
(1.1631672 0.12612316 -1.5538669e-20)
(1.1764057 0.12746174 -8.645912e-21)
(1.1841456 0.12654779 2.1084941e-20)
(0.036780524 -0.0091219064 -5.4325261e-21)
(0.11766227 -0.024774373 4.3664337e-21)
(0.20871467 -0.028262012 -8.7801396e-21)
(0.30600708 -0.023556166 2.8529963e-20)
(0.4064346 -0.013229618 -2.9463136e-20)
(0.50740493 0.0013581957 -1.6971231e-20)
(0.60644798 0.018918954 3.7440803e-20)
(0.70126907 0.038172488 4.7637699e-21)
(0.78986004 0.057950792 -2.4557657e-20)
(0.87058323 0.077232812 7.0131473e-20)
(0.94223761 0.095165156 4.9089949e-22)
(1.0041 0.11108517 -8.0820607e-20)
(1.0559307 0.12453529 0)
(1.0979399 0.13526236 3.974491e-20)
(1.1307209 0.14320191 5.5539117e-21)
(1.155158 0.14844972 -7.7936275e-20)
(1.1723234 0.15122831 -1.967919e-20)
(1.1833798 0.1518643 -1.2526653e-20)
(1.1894735 0.15070266 -1.478164e-20)
(1.1914643 0.14770273 4.0607948e-20)
(0.04819655 -0.008796747 -1.7302392e-20)
(0.14849128 -0.02200906 -2.2416901e-21)
(0.25582357 -0.020897131 3.0430912e-20)
(0.36641569 -0.010521143 3.7544368e-20)
(0.47710871 0.0057890779 -1.9988081e-20)
(0.58517329 0.026152356 -6.9353808e-20)
(0.68806294 0.048851081 -2.8095448e-20)
(0.78353093 0.072274138 7.9188056e-20)
(0.86977207 0.095040621 8.6333928e-21)
(0.94551339 0.11603793 -2.4952129e-20)
(1.0100599 0.13443557 1.3667312e-20)
(1.0632925 0.14969224 -4.3495218e-21)
(1.1056153 0.16154556 0)
(1.1378618 0.16998137 2.7321433e-20)
(1.1611737 0.17518715 -7.9672029e-20)
(1.1768698 0.17749625 -3.16148e-20)
(1.1863235 0.17733286 8.1414805e-20)
(1.190862 0.17517153 -4.3240891e-21)
(1.1916833 0.17146089 3.5694693e-21)
(1.1897073 0.16634679 2.7244888e-20)
(0.060646829 -0.0069803579 -3.2458594e-20)
(0.18124409 -0.015227077 -8.1776317e-20)
(0.30465152 -0.007649001 2.5593543e-21)
(0.42746542 0.0096401518 7.0318395e-20)
(0.54664043 0.032572263 6.2574787e-20)
(0.65948101 0.058760413 -7.1736598e-20)
(0.76357444 0.086107629 -2.5479774e-22)
(0.85696438 0.11276207 8.5838001e-20)
(0.93830055 0.13725328 4.8999829e-20)
(1.0069072 0.15852062 -5.4436847e-20)
(1.0627792 0.17590331 -9.2701608e-20)
(1.1065136 0.18911367 -3.1717467e-21)
(1.1391881 0.19818718 4.2299648e-20)
(1.1622089 0.2034126 -6.6341419e-21)
(1.1771498 0.20525229 -1.2920373e-20)
(1.1856069 0.20426348 1.9765481e-20)
(1.189081 0.20103112 4.4063816e-20)
(1.1888998 0.19612231 -4.4036833e-20)
(1.1861742 0.19002593 -1.0276502e-19)
(1.181736 0.18297668 2.4690767e-20)
(0.073721338 -0.003446234 -3.5048611e-20)
(0.21474568 -0.0040173627 -1.7412632e-19)
(0.35334664 0.011817812 8.2300587e-20)
(0.48673783 0.037010485 9.2981866e-20)
(0.61220276 0.066838303 5.8105543e-20)
(0.72730698 0.09848531 8.6366984e-21)
(0.83002538 0.12958902 -1.0655332e-19)
(0.91895109 0.15820707 0)
(0.99342168 0.18294934 -6.9025616e-20)
(1.0535356 0.20297659 -1.5269863e-20)
(1.1000764 0.21794636 5.4912412e-20)
(1.1343687 0.2279358 1.1017953e-20)
(1.1580941 0.23334287 -4.5789751e-20)
(1.1730988 0.2347767 -4.9267146e-20)
(1.1812216 0.23295191 2.4387802e-20)
(1.1841601 0.2285992 4.50082e-20)
(1.1833848 0.22240005 -5.582748e-20)
(1.1801007 0.21494946 -1.0794115e-19)
(1.1752476 0.20672069 -3.1505396e-21)
(1.1695 0.19797927 2.7154295e-20)
(0.086854486 0.0019610474 -3.5675285e-21)
(0.24752283 0.011823713 8.8074646e-20)
(0.39973032 0.037522946 -1.6411768e-20)
(0.54156334 0.071273446 -8.4548199e-20)
(0.67088178 0.10785927 4.5287542e-20)
(0.7857696 0.14418626 4.9279688e-20)
(0.88484876 0.1778101 5.5540805e-21)
(0.96749233 0.20690255 -9.9829783e-20)
(1.033896 0.23035351 -2.513836e-21)
(1.0850201 0.24771624 5.0692443e-20)
(1.122434 0.25909102 6.0082188e-21)
(1.1481056 0.2649884 -1.9792082e-20)
(1.1641754 0.26618284 -7.5983158e-20)
(1.1727553 0.26357334 -6.2729479e-21)
(1.1757732 0.25806734 4.3690162e-20)
(1.1748766 0.25049705 3.7154545e-20)
(1.1713922 0.24157042 1.9854626e-20)
(1.1663334 0.23185208 -5.3227758e-20)
(1.1604399 0.22175995 1.2965463e-20)
(1.1542137 0.21156062 8.2958607e-20)
(-0.0012972592 0.0014390688 -1.1242799e-21)
(-0.0047601573 0.0031965997 2.0697802e-21)
(-0.010802217 0.0041471809 8.8919069e-22)
(-0.017803326 0.0045511875 -2.4377931e-21)
(-0.024806237 0.0045762964 -1.4237717e-21)
(-0.031379864 0.0043353585 1.5589927e-21)
(-0.037252663 0.0039107509 -6.905985e-21)
(-0.042246044 0.0033624379 -5.9891059e-21)
(-0.046259521 0.0027333101 1.1228745e-20)
(-0.049246746 0.0020537391 -9.7925353e-21)
(-0.051195536 0.0013449846 -1.9884733e-22)
(-0.05211503 0.00062168667 3.6877001e-21)
(-0.052027271 -0.00010624469 -6.3579739e-22)
(-0.050961448 -0.00083212102 2.2946038e-20)
(-0.048950281 -0.0015511057 3.0425871e-22)
(-0.046029475 -0.0022587554 -4.1125697e-20)
(-0.042240048 -0.0029504297 7.5875642e-21)
(-0.037620058 -0.003624052 2.4012506e-20)
(-0.032177492 -0.0042781333 -4.4134794e-20)
(-0.025971533 -0.0048644242 -2.7922694e-20)
(-0.0016570946 0.0041935101 -5.3918109e-21)
(-0.0054127669 0.0092943816 1.0889981e-20)
(-0.011248691 0.012039551 -1.0225678e-20)
(-0.017703348 0.013186755 3.9493521e-21)
(-0.023914672 0.013225942 4.8430771e-21)
(-0.029501152 0.012488483 7.1723207e-22)
(-0.034225732 0.011216393 -2.2626627e-20)
(-0.037934857 0.0095857425 -2.0465158e-21)
(-0.040545 0.0077224331 2.026272e-20)
(-0.042020756 0.0057155768 -5.0724674e-21)
(-0.042356625 0.0036274965 -2.1873788e-20)
(-0.041565366 0.0015010409 4.9226888e-21)
(-0.039670408 -0.00063488587 2.2750822e-20)
(-0.03670053 -0.0027608983 1.036469e-20)
(-0.032686062 -0.004863092 2.1981496e-20)
(-0.027659328 -0.0069289373 -1.9885157e-20)
(-0.021664373 -0.0089454636 -2.1799844e-20)
(-0.014748331 -0.010906102 2.1321818e-20)
(-0.0068457809 -0.012796304 2.6977095e-20)
(0.0022325785 -0.01444991 1.5947022e-20)
(-0.0023098355 0.0065794359 -4.3729447e-21)
(-0.0065561038 0.014519748 -5.6485422e-21)
(-0.011920335 0.018758589 3.0616944e-22)
(-0.017248474 0.020476976 1.0891056e-21)
(-0.02186172 0.020444606 6.7191938e-21)
(-0.025474004 0.01918777 1.07083e-20)
(-0.027915189 0.017091629 -3.7404002e-21)
(-0.029080388 0.014436488 -1.8980905e-20)
(-0.028919142 0.011422994 6.5718613e-21)
(-0.027417674 0.0081933197 1.2923464e-20)
(-0.024584117 0.0048469324 5.8664312e-21)
(-0.020439275 0.0014521486 1.8244975e-20)
(-0.015010612 -0.0019452093 1.738412e-21)
(-0.0083278721 -0.0053149288 -3.4036166e-20)
(-0.00041926319 -0.0086357934 1.2149124e-21)
(0.0086870259 -0.011889054 -2.2246746e-20)
(0.018939839 -0.015057145 -2.4614747e-20)
(0.030270817 -0.01813131 4.6097848e-20)
(0.04286929 -0.021058402 2.5513693e-20)
(0.057413345 -0.023476277 1.3585568e-22)
(-0.0031370815 0.0083922525 -5.303914e-21)
(-0.0079144167 0.018383773 -8.5335611e-21)
(-0.012462947 0.023644435 4.3729414e-21)
(-0.016051027 0.025665906 4.162866e-21)
(-0.018253673 0.025431866 2.0173136e-21)
(-0.018918574 0.023626557 7.3538338e-21)
(-0.017970642 0.020752221 9.352765e-21)
(-0.015375021 0.017174532 -1.3573097e-21)
(-0.01112981 0.013155732 -1.1531587e-20)
(-0.0052542002 0.0088820064 -2.9201774e-20)
(0.0022214856 0.0044837414 6.4411561e-23)
(0.0112611 5.0473326e-05 4.0884926e-20)
(0.021827221 -0.0043583169 -1.8463137e-20)
(0.033882741 -0.0087039326 -1.2355575e-20)
(0.04739509 -0.012960437 5.4794715e-22)
(0.062334458 -0.017106987 3.2472635e-20)
(0.078637441 -0.021128891 -1.4924294e-20)
(0.096196848 -0.025024698 -5.36248e-20)
(0.11533458 -0.028676837 4.6011952e-20)
(0.13743241 -0.031404884 3.3196799e-20)
(-0.003979662 0.0094902196 -6.8657401e-22)
(-0.009109137 0.020536163 -1.257677e-20)
(-0.012380646 0.026215525 -3.4278066e-20)
(-0.0135582 0.028197005 -5.7518285e-21)
(-0.012519153 0.02759822 -3.6301479e-21)
(-0.0092735537 0.025215327 6.3304917e-21)
(-0.0038639128 0.021634737 -4.6657297e-21)
(0.0036560857 0.017283353 -8.8414344e-21)
(0.013224887 0.012467852 2.1985499e-20)
(0.024777557 0.007406269 5.0738573e-21)
(0.038250493 0.0022516867 -2.5403987e-20)
(0.053581658 -0.0028907254 1.112156e-20)
(0.070711159 -0.0079512112 0)
(0.089581911 -0.012885755 1.2143524e-20)
(0.11014282 -0.017667302 -9.746203e-21)
(0.13234786 -0.022278163 -1.4409873e-20)
(0.15610841 -0.026716953 -1.5595007e-21)
(0.1812559 -0.031010263 -2.2379357e-21)
(0.20820609 -0.034972273 4.6354769e-20)
(0.23920143 -0.037459085 -1.0555047e-20)
(-0.004654515 0.009803708 -7.5579522e-21)
(-0.0096912167 0.020790684 2.4604397e-20)
(-0.011067761 0.026208224 -1.0541103e-20)
(-0.0090764118 0.02776515 -2.7566162e-20)
(-0.0039231934 0.026627864 -2.7638392e-20)
(0.0042007858 0.023654242 -1.497472e-20)
(0.015118632 0.019477681 -6.9339626e-22)
(0.028672337 0.014558049 5.568693e-21)
(0.044722651 0.0092262968 1.9683151e-20)
(0.063145215 0.0037185585 7.379984e-21)
(0.083826092 -0.0017993003 -7.2114538e-21)
(0.10665961 -0.0072133366 -2.0121197e-21)
(0.13154474 -0.01244857 -3.8345572e-20)
(0.1583825 -0.017459423 -1.2745785e-20)
(0.18707782 -0.022221464 1.8842483e-20)
(0.21754055 -0.026725447 -2.1123017e-20)
(0.24963325 -0.030994056 -9.0143532e-21)
(0.28309955 -0.035111132 3.0562726e-20)
(0.31837396 -0.038857091 5.0689165e-20)
(0.35861994 -0.040507316 3.3735758e-21)
(-0.0049698094 0.0093327234 1.6829484e-20)
(-0.0091725221 0.019128993 1.4508415e-20)
(-0.0078434245 0.023593293 5.1309938e-20)
(-0.0018032824 0.024347285 2.3468981e-20)
(0.0084056534 0.022522874 1.8316159e-22)
(0.022401097 0.018988595 -3.9521104e-20)
(0.039859847 0.014386073 -2.4396021e-20)
(0.060507174 0.0091791825 1.0498681e-20)
(0.084108511 0.0037011072 1.4449016e-20)
(0.11045913 -0.0018106035 -1.3152003e-20)
(0.1393736 -0.0071895066 -4.419591e-20)
(0.17067713 -0.012322419 2.9727745e-20)
(0.20419804 -0.017136618 2.0088339e-20)
(0.23976206 -0.021591113 -2.7656598e-20)
(0.27719216 -0.02566992 1.1700158e-20)
(0.31631211 -0.029378802 2.4295605e-20)
(0.35689848 -0.03277453 8.1104799e-21)
(0.39857803 -0.036030136 -1.182582e-20)
(0.44171072 -0.038971509 -1.4234132e-20)
(0.49031488 -0.039269682 5.9473906e-21)
(-0.0047355021 0.008136374 1.1127607e-20)
(-0.007051877 0.015686271 -2.3437211e-20)
(-0.0019861283 0.018568244 8.6370283e-21)
(0.0091329558 0.018204882 3.3698521e-20)
(0.025432143 0.015615526 5.2288135e-20)
(0.046334339 0.011630749 2.0340276e-20)
(0.071360584 0.0068631617 -5.8842892e-21)
(0.10010098 0.0017493405 -1.2321057e-20)
(0.13220496 -0.0033989823 -6.2292556e-21)
(0.16736168 -0.0083616369 3.4351255e-20)
(0.20528208 -0.012987326 -4.5338055e-21)
(0.24568485 -0.017176949 -1.6704873e-20)
(0.28828543 -0.020871883 -1.9757242e-20)
(0.33278778 -0.024046684 -4.761839e-20)
(0.37888317 -0.026704472 2.3324933e-20)
(0.42625769 -0.028876963 -1.4152808e-20)
(0.47455844 -0.030668171 2.6109221e-20)
(0.5232771 -0.032376489 2.1131182e-20)
(0.57262499 -0.033999785 -8.5854952e-20)
(0.62728143 -0.032767358 -9.1362787e-23)
(-0.0037702342 0.0063200701 2.1985341e-20)
(-0.0028399699 0.010730948 -2.625168e-20)
(0.0072218221 0.011542564 -4.5146994e-20)
(0.024607546 0.0098795577 -2.7337595e-20)
(0.048126206 0.0065778119 -2.0501062e-21)
(0.077000673 0.0023832557 1.3083674e-20)
(0.11058224 -0.0021584307 -2.8376106e-21)
(0.1483064 -0.006668798 1.8169315e-20)
(0.18967766 -0.010884058 8.8906191e-21)
(0.23424258 -0.014624228 -1.141332e-20)
(0.28156534 -0.017773512 8.9147016e-21)
(0.3312097 -0.020265634 -2.3980354e-20)
(0.38272575 -0.022073353 8.0859462e-21)
(0.435641 -0.023201994 1.6818218e-20)
(0.48945868 -0.023685574 -2.6491377e-21)
(0.54366737 -0.02358898 1.666804e-21)
(0.59772393 -0.023063685 -3.154707e-22)
(0.65095768 -0.022517285 1.9670634e-20)
(0.70339045 -0.022147243 4.0588983e-21)
(0.76012157 -0.019261133 -6.5809556e-22)
(-0.0019022181 0.004024921 2.3763119e-20)
(0.0039209644 0.0046518498 5.7340234e-20)
(0.020441473 0.0031372938 -4.9386307e-20)
(0.045404925 0.00021413567 -9.9743337e-21)
(0.077314173 -0.0035372707 2.031041e-20)
(0.11518697 -0.0075017744 2.1491782e-21)
(0.15818817 -0.011239795 -2.9894818e-20)
(0.20557047 -0.014466872 6.9996799e-21)
(0.25665583 -0.016999663 7.1357193e-21)
(0.31080333 -0.018728811 -2.6333981e-20)
(0.36738175 -0.019603323 1.2982004e-21)
(0.42575182 -0.01961794 -3.7296624e-20)
(0.48525598 -0.018802888 -3.646898e-20)
(0.54521435 -0.017215654 6.5932774e-20)
(0.6049267 -0.014933763 5.5858807e-21)
(0.66367876 -0.012054054 -1.526596e-20)
(0.72072636 -0.0087344417 1.9440733e-20)
(0.77522009 -0.0052816551 -9.2261495e-22)
(0.82668224 -0.0017160547 2.0403506e-20)
(0.87885051 0.0035168879 -1.9683243e-20)
(-0.01858417 -0.005146526 5.8755265e-20)
(-0.0098907428 -0.0056869228 1.5886829e-20)
(0.00020744981 -0.0061259353 -3.5384442e-20)
(0.011358718 -0.0063955068 1.6922395e-20)
(0.02329645 -0.0065775476 0)
(0.035962436 -0.0066996127 0)
(0.049297558 -0.0067643743 -2.3161452e-20)
(0.063222576 -0.0067796533 -1.6637187e-20)
(0.077667533 -0.0067548562 1.9296883e-20)
(0.092573459 -0.0066967865 1.8339866e-20)
(0.10788596 -0.0066106443 1.0592399e-21)
(0.12355383 -0.0065010046 -1.040898e-20)
(0.13952943 -0.0063718421 8.422275e-21)
(0.15576827 -0.0062265216 1.8403649e-20)
(0.17222837 -0.0060679258 -5.3000594e-21)
(0.18886997 -0.0058985612 -1.0272172e-20)
(0.20565529 -0.005720622 -4.3612477e-21)
(0.22254842 -0.0055360422 -4.4593024e-21)
(0.23951518 -0.0053465404 7.4027213e-22)
(0.25652308 -0.0051536555 1.2445956e-21)
(0.2735414 -0.0049587728 2.6129204e-21)
(0.29054114 -0.0047631443 6.7444907e-21)
(0.30749517 -0.0045679034 2.3003079e-22)
(0.32437824 -0.004374076 -3.5081039e-21)
(0.34116717 -0.004182588 1.5270335e-22)
(0.35784088 -0.0039942719 -5.8821355e-22)
(0.3743805 -0.0038098711 1.2697637e-21)
(0.39076951 -0.0036300444 1.0657305e-21)
(0.40699379 -0.0034553696 -1.3548995e-21)
(0.42304171 -0.0032863479 -1.1978503e-22)
(0.43890423 -0.0031234085 4.0727957e-24)
(0.45457499 -0.0029669137 -3.6596201e-22)
(0.47005037 -0.0028171646 -4.4099832e-22)
(0.48532959 -0.0026744078 7.9635648e-23)
(0.50041486 -0.0025388428 -1.4730269e-22)
(0.51531148 -0.0024106304 -2.3663539e-22)
(0.53002804 -0.0022899021 2.7493797e-22)
(0.54457673 -0.00217677 3.2117442e-22)
(0.55897341 -0.002071342 -2.8300375e-23)
(0.57323888 -0.0019737255 -2.0342418e-22)
(0.58739687 -0.0018840809 2.8507557e-23)
(0.60148298 -0.0018025268 -4.3302699e-23)
(0.61552092 -0.0017295447 1.2755722e-22)
(0.62959895 -0.0016648705 3.4653085e-24)
(0.64365102 -0.0016111654 -2.2296934e-22)
(0.65810545 -0.0015633077 -8.3169895e-24)
(0.67203953 -0.0015415875 7.4731863e-24)
(0.68844874 -0.0014959861 -1.7589669e-23)
(0.699535 -0.0015839066 2.9160945e-23)
(0.72679485 -0.0014615722 5.6151685e-22)
(0.010883983 -0.015160536 -1.2847326e-20)
(0.018701371 -0.016798878 -6.3727071e-20)
(0.028399278 -0.018088076 -3.0775155e-20)
(0.039115855 -0.018857349 3.8765635e-20)
(0.050472877 -0.019380771 1.4777061e-20)
(0.062491101 -0.019738346 -1.8365772e-20)
(0.075142173 -0.019930119 4.7317981e-21)
(0.088349647 -0.019977615 2.565481e-20)
(0.10205094 -0.019908868 7.2149826e-23)
(0.1161964 -0.019743395 -7.7365976e-21)
(0.13073852 -0.019495823 -1.3105965e-20)
(0.14563133 -0.019179239 -8.6237015e-21)
(0.16083162 -0.018805106 1.7936833e-20)
(0.17629862 -0.018383131 9.0831575e-21)
(0.1919934 -0.017921655 -1.6647491e-20)
(0.20787868 -0.017427962 -6.0988309e-21)
(0.22391873 -0.016908459 3.2363029e-21)
(0.24007931 -0.016368814 8.4403265e-21)
(0.25632762 -0.015814086 7.0711782e-21)
(0.27263232 -0.015248817 -7.0962126e-21)
(0.28896361 -0.014677112 -3.26189e-21)
(0.30529327 -0.014102693 1.4290211e-21)
(0.32159478 -0.013528934 4.5642047e-22)
(0.3378434 -0.0129589 1.2478914e-21)
(0.35401634 -0.012395359 2.0286296e-22)
(0.37009279 -0.011840808 -3.4964459e-22)
(0.3860541 -0.011297478 -7.5641221e-22)
(0.40188387 -0.010767352 1.0420807e-21)
(0.41756799 -0.01025217 8.7787826e-22)
(0.43309484 -0.0097534477 -2.0591785e-22)
(0.44845526 -0.0092724848 6.0392058e-22)
(0.46364272 -0.0088103826 -2.4834231e-22)
(0.47865339 -0.0083680602 -4.2078418e-22)
(0.49348621 -0.0079462747 -6.7348111e-22)
(0.50814306 -0.0075456425 4.7109739e-22)
(0.52262886 -0.0071666641 -7.524046e-23)
(0.53695179 -0.006809753 2.245662e-22)
(0.55112356 -0.0064752633 -5.3993489e-22)
(0.56515953 -0.0061635371 5.0898205e-22)
(0.57907994 -0.0058749123 7.9885054e-23)
(0.59290796 -0.0056098853 -1.0074269e-22)
(0.60667847 -0.0053688245 2.7729049e-22)
(0.62041463 -0.0051531848 3.9323389e-22)
(0.6342035 -0.0049621823 3.1370217e-22)
(0.64797939 -0.0048037934 3.5166373e-22)
(0.66216577 -0.0046626959 -5.1377255e-23)
(0.67585 -0.0045995484 2.5044316e-22)
(0.691992 -0.0044649131 2.5130965e-22)
(0.70288857 -0.0047283595 -4.1765702e-22)
(0.72975649 -0.0043656001 -1.869058e-23)
(0.068391698 -0.024273861 9.5223557e-21)
(0.074453637 -0.027016932 3.3336089e-21)
(0.083233706 -0.029096786 -1.2292452e-20)
(0.093032813 -0.030279522 -1.2535248e-21)
(0.10319372 -0.031097565 1.5104999e-20)
(0.1138925 -0.031679161 -1.5005655e-20)
(0.12516928 -0.032002388 -3.0109018e-20)
(0.13694917 -0.032096664 1.4638912e-20)
(0.14918064 -0.032008043 1.8363586e-20)
(0.16183137 -0.031766698 -1.1716934e-20)
(0.17486641 -0.031394213 1.0285033e-21)
(0.18824877 -0.030910457 8.7246715e-21)
(0.20194292 -0.030333196 -1.5430322e-20)
(0.21591456 -0.029677534 3.0351195e-21)
(0.23012998 -0.028956504 7.6253778e-21)
(0.2445561 -0.028181592 -4.2191111e-23)
(0.25916062 -0.027362991 2.1916594e-22)
(0.2739121 -0.026509792 -7.540958e-21)
(0.28878002 -0.025630167 4.010315e-21)
(0.3037349 -0.024731508 8.6357922e-21)
(0.31874844 -0.023820534 -3.9108701e-21)
(0.33379364 -0.022903365 -2.2449853e-21)
(0.34884495 -0.021985583 1.0036782e-21)
(0.36387842 -0.021072271 -1.7702679e-21)
(0.37887181 -0.020168044 1.3769217e-21)
(0.39380475 -0.01927707 7.323445e-22)
(0.40865885 -0.018403094 1.6647855e-21)
(0.42341781 -0.017549446 -2.1031747e-21)
(0.43806756 -0.016719067 2.4108873e-21)
(0.45259631 -0.015914522 5.9553495e-22)
(0.46699468 -0.015138024 5.1729228e-22)
(0.48125579 -0.014391456 3.3406476e-22)
(0.49537535 -0.013676403 1.01389e-21)
(0.50935175 -0.012994179 -1.598106e-21)
(0.52318624 -0.012345867 4.4702613e-22)
(0.53688301 -0.011732357 1.9109841e-22)
(0.55044944 -0.011154393 -7.422121e-23)
(0.56389636 -0.010612621 5.3494464e-23)
(0.57723817 -0.010107664 -4.7401818e-22)
(0.59049409 -0.0096401386 2.6171433e-22)
(0.60368615 -0.0092109206 -4.2050522e-23)
(0.61684798 -0.0088206698 6.6543025e-22)
(0.6300016 -0.0084718494 -3.2857738e-22)
(0.64323188 -0.0081631961 6.8175755e-23)
(0.65647374 -0.0079079736 9.9992336e-23)
(0.6701415 -0.0076808423 -1.6276332e-22)
(0.68334161 -0.0075820707 -3.3883757e-22)
(0.69896583 -0.0073650627 1.0268446e-21)
(0.70949407 -0.0078025669 3.7300998e-22)
(0.7356014 -0.0072129904 -1.2916855e-21)
(0.15142957 -0.031813882 1.5222938e-21)
(0.15485247 -0.035639731 -1.1621349e-20)
(0.16203157 -0.0384231 6.6674632e-21)
(0.17034444 -0.039916802 -1.3420354e-20)
(0.17865075 -0.040982561 -1.9907021e-21)
(0.1873304 -0.04178838 9.2557931e-21)
(0.19654013 -0.042267073 -9.8955282e-21)
(0.20620279 -0.042446461 1.5407678e-21)
(0.21627474 -0.042388305 1.3015551e-20)
(0.22674617 -0.042130959 3.4614196e-21)
(0.23759854 -0.041699776 -6.2665158e-21)
(0.24880544 -0.041118795 -2.9208262e-21)
(0.26034022 -0.0404103 -5.8523238e-21)
(0.27217615 -0.039593506 -6.548613e-21)
(0.28428558 -0.038685131 3.2063517e-21)
(0.2966402 -0.037700093 7.7642698e-22)
(0.30921151 -0.036651821 1.413314e-21)
(0.32197114 -0.03555245 -3.4247206e-21)
(0.33489101 -0.034413002 -4.3577363e-21)
(0.34794359 -0.033243549 2.4259575e-21)
(0.36110211 -0.032053324 3.3361735e-21)
(0.37434079 -0.030850799 -1.652264e-21)
(0.38763502 -0.029643751 1.6420269e-21)
(0.40096152 -0.028439297 -4.3093616e-22)
(0.41429857 -0.027243932 -4.1261815e-21)
(0.42762608 -0.026063547 -3.1294262e-21)
(0.4409258 -0.024903453 -2.2996677e-22)
(0.45418141 -0.023768398 4.041047e-22)
(0.46737865 -0.02266259 -2.3043325e-21)
(0.48050543 -0.021589718 -9.8378984e-22)
(0.4935519 -0.020552985 2.3606691e-22)
(0.5065106 -0.019555136 -1.4013253e-21)
(0.51937655 -0.018598499 -2.8092432e-23)
(0.53214733 -0.017685026 -5.089333e-22)
(0.54482325 -0.016816346 -5.0350639e-22)
(0.55740749 -0.01599382 -6.8966538e-22)
(0.56990628 -0.015218601 -1.1065779e-21)
(0.58232925 -0.014491705 -3.514277e-23)
(0.59468946 -0.013814113 -4.4459499e-24)
(0.60700468 -0.01318679 -7.2575083e-22)
(0.61929544 -0.01261106 -6.2304442e-23)
(0.63159356 -0.012087939 -5.3035911e-22)
(0.64391956 -0.011620948 -7.8791463e-22)
(0.65635516 -0.011208419 6.8977735e-22)
(0.66883622 -0.010868813 2.5598082e-23)
(0.68176398 -0.010567173 3.9909153e-22)
(0.69427233 -0.010441859 -3.7004977e-22)
(0.70915482 -0.010153548 -6.8449614e-22)
(0.71915567 -0.010761789 1.2443072e-22)
(0.74416852 -0.0099683414 7.3489436e-22)
(0.25637076 -0.037019522 -2.1049593e-20)
(0.25625038 -0.041892303 4.7866623e-20)
(0.2609662 -0.045278272 1.0404611e-20)
(0.2671043 -0.047004408 -1.5874926e-20)
(0.27286229 -0.048305182 -2.0605782e-21)
(0.27881243 -0.049367377 2.6173051e-21)
(0.28527712 -0.050061702 -1.7002336e-21)
(0.29217783 -0.050403698 -4.7236824e-21)
(0.29946712 -0.050463964 -4.0499394e-21)
(0.30715665 -0.050285964 -1.2315327e-20)
(0.31524585 -0.04989646 1.8108279e-20)
(0.32371814 -0.049320969 6.6178506e-21)
(0.33255425 -0.04858415 -1.6943531e-20)
(0.34173404 -0.047707957 1.0354479e-20)
(0.35123506 -0.046711857 8.3995324e-21)
(0.36103293 -0.045613502 -8.1475972e-22)
(0.37110218 -0.044429069 -3.1044277e-21)
(0.38141674 -0.04317343 -3.9401461e-21)
(0.39195031 -0.041860294 -1.4447562e-21)
(0.40267669 -0.040502337 -1.2833083e-21)
(0.41357009 -0.039111297 -3.1455869e-21)
(0.42460542 -0.037698039 0)
(0.43575852 -0.036272604 -1.408295e-21)
(0.44700639 -0.034844241 4.0323935e-21)
(0.45832737 -0.033421428 5.6214268e-21)
(0.4697013 -0.032011895 -9.5748341e-22)
(0.48110972 -0.03062264 -3.1428311e-21)
(0.49253594 -0.029259949 3.2930978e-21)
(0.50396522 -0.027929419 1.8331252e-22)
(0.51538485 -0.026635983 3.7427679e-21)
(0.52678427 -0.025383952 -5.5231225e-22)
(0.53815515 -0.024177049 1.8685378e-21)
(0.54949155 -0.023018461 -9.1484275e-22)
(0.56078999 -0.02191089 3.8308548e-22)
(0.5720496 -0.020856623 -5.3959128e-22)
(0.58327227 -0.019857596 6.445148e-22)
(0.59446286 -0.018915479 5.7522993e-22)
(0.60562949 -0.018031755 4.9551034e-22)
(0.61678365 -0.01720786 -1.2668192e-21)
(0.62794135 -0.016445198 9.3659943e-22)
(0.63912131 -0.015745628 -5.1811054e-22)
(0.65035322 -0.015110602 -1.7079166e-21)
(0.66165573 -0.01454475 2.2981534e-21)
(0.67310677 -0.014046101 -9.219974e-23)
(0.68464341 -0.013638169 -2.9968451e-22)
(0.69665045 -0.01327695 -1.5252458e-23)
(0.70829656 -0.013136717 -3.6200773e-22)
(0.72225064 -0.012791714 -1.1249241e-21)
(0.73159259 -0.013565636 8.9228206e-22)
(0.75522573 -0.012598946 -7.4900453e-23)
(0.37847666 -0.038946278 -1.7622237e-20)
(0.37393205 -0.044882034 1.2895012e-20)
(0.3752008 -0.048809007 3.0272214e-21)
(0.37837152 -0.050779043 -7.6872466e-21)
(0.38089899 -0.052382336 1.2140572e-20)
(0.38345477 -0.053787222 7.8496398e-21)
(0.38655467 -0.054807133 -1.2719429e-20)
(0.39013569 -0.055441863 -6.116349e-21)
(0.39413051 -0.055757882 1.2802181e-20)
(0.3985602 -0.055797647 -1.549598e-20)
(0.4034397 -0.055588224 -1.4186301e-20)
(0.40876019 -0.05515517 1.4336572e-20)
(0.41450622 -0.054523687 6.887491e-21)
(0.42066093 -0.053717304 -4.354324e-21)
(0.42720467 -0.052757658 -1.8038617e-21)
(0.434115 -0.051664801 -4.0302815e-21)
(0.44136769 -0.050457478 5.2838112e-21)
(0.44893743 -0.049153256 3.7107996e-21)
(0.45679838 -0.047768597 -3.2596066e-21)
(0.46492451 -0.046318915 3.1768068e-21)
(0.47328999 -0.044818626 2.8466578e-21)
(0.48186951 -0.043281191 -3.3011399e-21)
(0.49063859 -0.041719129 3.7664052e-22)
(0.49957375 -0.040144034 -3.3079359e-21)
(0.50865279 -0.038566589 7.667754e-21)
(0.5178549 -0.036996568 6.3963723e-21)
(0.52716088 -0.035442861 9.0934783e-22)
(0.53655323 -0.033913481 -1.8547488e-21)
(0.54601632 -0.032415598 4.0615074e-21)
(0.55553644 -0.030955566 7.8686458e-21)
(0.56510198 -0.029538967 2.4684551e-21)
(0.57470348 -0.028170661 3.7005205e-21)
(0.58433376 -0.026854841 2.2107561e-21)
(0.59398802 -0.025595104 8.6457434e-22)
(0.603664 -0.024394528 -2.802677e-22)
(0.61336212 -0.023255753 3.2517065e-21)
(0.62308567 -0.022181088 7.5182445e-22)
(0.63284111 -0.021172601 3.5883567e-22)
(0.64263815 -0.020232289 6.7837264e-23)
(0.6524909 -0.019362102 1.3738106e-21)
(0.66241608 -0.018564519 5.7408478e-23)
(0.67244099 -0.017841519 6.8861487e-22)
(0.68258229 -0.017198894 -1.8153563e-22)
(0.69291354 -0.01663448 -5.0196427e-22)
(0.7033734 -0.016176646 -2.822159e-22)
(0.71432742 -0.015773028 -8.5073037e-22)
(0.72498527 -0.015631142 4.2476224e-22)
(0.73786898 -0.015246441 -2.8767421e-22)
(0.74645383 -0.01617954 -5.053345e-22)
(0.7684804 -0.015075585 4.1730755e-22)
(0.51175247 -0.036653671 3.636989e-21)
(0.50210551 -0.043675509 -1.9038033e-20)
(0.49895761 -0.048134512 -2.3285183e-21)
(0.49836029 -0.050522877 5.5169125e-21)
(0.49710312 -0.05263972 3.0904233e-21)
(0.49576375 -0.054563136 -1.5022145e-23)
(0.49502259 -0.0560812 6.2771833e-21)
(0.4948763 -0.057194381 7.6958406e-21)
(0.49523437 -0.057954588 9.9245571e-21)
(0.49610427 -0.058394338 -1.1358264e-20)
(0.49750618 -0.058539424 -2.1820372e-20)
(0.49943606 -0.058415603 -4.0151556e-21)
(0.50187848 -0.058048172 1.6133865e-20)
(0.50481558 -0.057461816 1.2967619e-20)
(0.50822715 -0.056680363 -5.9314944e-21)
(0.51209017 -0.055726538 1.3280371e-21)
(0.51637953 -0.054621988 -3.7718944e-21)
(0.52106894 -0.053387345 2.4028741e-21)
(0.52613147 -0.052042216 -2.9488455e-22)
(0.53153997 -0.050605157 -1.9080449e-21)
(0.53726745 -0.049093667 8.0712589e-21)
(0.54328741 -0.04752418 -3.4031831e-22)
(0.54957415 -0.045912059 4.681981e-22)
(0.55610298 -0.044271591 -6.2086752e-22)
(0.56285042 -0.042615976 -4.4563284e-21)
(0.56979442 -0.040957338 4.3728826e-21)
(0.5769145 -0.039306729 1.9405058e-21)
(0.58419184 -0.037674151 -3.4639333e-21)
(0.59160947 -0.036068579 -4.2582639e-21)