/*--------------------------------*- C++ -*----------------------------------*\
  =========                 |
  \\      /  F ield         | OpenFOAM: The Open Source CFD Toolbox
   \\    /   O peration     | Website:  https://openfoam.org
    \\  /    A nd           | Version:  6
     \\/     M anipulation  |
\*---------------------------------------------------------------------------*/
FoamFile
{
    version     2.0;
    format      ascii;
    class       surfaceScalarField;
    location    "145";
    object      phi_0;
}
// * * * * * * * * * * * * * * * * * * * * * * * * * * * * * * * * * * * * * //

dimensions      [0 3 -1 0 0 0 0];

internalField   nonuniform List<scalar> 
18180
(
0.00031873035
-0.00016316232
-0.00015556804
0.0013092154
-0.0013669252
0.00037644019
0.0030328975
-0.0033336388
0.0016099567
0.0055497915
-0.0059759901
0.0034590961
0.0089182254
-0.009239125
0.0058706911
0.013192854
-0.013079592
0.0088049631
0.018421998
-0.017459922
0.012230777
0.024644679
-0.022345901
0.016123221
0.031887465
-0.027703441
0.020460655
0.040161397
-0.033495956
0.025222023
0.049459306
-0.039682613
0.030384704
0.059753884
-0.046217409
0.035922831
0.070996917
-0.053049075
0.041806042
0.083120144
-0.060121835
0.047998608
0.096038337
-0.067377113
0.05445892
0.10965514
-0.074756296
0.061139493
0.12387108
-0.082204409
0.067988464
0.13859882
-0.089674411
0.074946678
0.15383691
-0.097149173
0.081911077
-0.10462632
0.088679254
0.16978398
0.00039749831
-0.00056066063
0.0016095996
-0.0025790265
0.003689329
-0.0054133683
0.0066874632
-0.0089741242
0.010650683
-0.013202345
0.015617914
-0.018046822
0.021616318
-0.023458327
0.028657335
-0.029386917
0.036733041
-0.035779147
0.04581326
-0.042576175
0.055843824
-0.049713177
0.066746358
-0.057119943
0.078419832
-0.064722549
0.090743961
-0.072445965
0.10358426
-0.080217408
0.11679811
-0.087970148
0.13024098
-0.095647277
0.14377317
-0.1032066
0.15725875
-0.11063476
-0.11786223
0.17049466
0.00048062481
-0.0010412854
0.0019187036
-0.0040171053
0.0043524907
-0.0078471553
0.0078165842
-0.012438218
0.012337697
-0.017723457
0.017929252
-0.023638378
0.024586309
-0.030115384
0.032281287
-0.037081895
0.040960934
-0.044458794
0.050545031
-0.052160272
0.060927192
-0.060095338
0.071977942
-0.068170693
0.083549943
-0.076294549
0.095484961
-0.084380983
0.10762184
-0.092354285
0.1198044
-0.10015271
0.13188814
-0.10773101
0.1437436
-0.11506207
0.1552488
-0.12213996
-0.1289146
0.16630117
0.00056617119
-0.0016074566
0.0022279481
-0.0056788823
0.0050006237
-0.010619831
0.0088940323
-0.016331626
0.013905291
-0.022734715
0.020011927
-0.029745015
0.027166547
-0.037270003
0.03529349
-0.045208838
0.044287944
-0.053453248
0.054017876
-0.061890204
0.064328828
-0.07040629
0.075051245
-0.07889311
0.08600964
-0.087252944
0.09703261
-0.095403954
0.10796257
-0.10328424
0.11866405
-0.11085419
0.12902972
-0.11809669
0.13898302
-0.12501536
0.14847494
-0.13163188
-0.13794548
0.15750582
0.00065088785
-0.0022583445
0.0025243476
-0.007552342
0.0056036474
-0.013699131
0.0098644869
-0.020592466
0.015264644
-0.028134872
0.021736454
-0.036216825
0.029182538
-0.044716087
0.037474962
-0.053501262
0.046458079
-0.062436365
0.055954922
-0.071387046
0.065776519
-0.080227888
0.075733099
-0.08884969
0.085645799
-0.097165644
0.095357467
-0.10511562
0.10474127
-0.11266804
0.11370623
-0.11981916
0.12219938
-0.12658984
0.13020456
-0.13302054
0.13773797
-0.13916529
-0.14506783
0.14486031
0.0007306375
-0.002988982
0.0027920923
-0.0096137969
0.0061265872
-0.017033625
0.010666734
-0.025132612
0.016322681
-0.03379082
0.022975285
-0.042869429
0.030474479
-0.052215282
0.038642456
-0.061669238
0.047281251
-0.07107516
0.056183798
-0.080289592
0.065146948
-0.089191038
0.073984654
-0.097687396
0.082539528
-0.10572052
0.090691331
-0.11326742
0.098361466
-0.12033818
0.10551329
-0.12697098
0.11214876
-0.13322531
0.11830235
-0.13917412
0.12403354
-0.14489648
-0.15046352
0.12942924
0.00080073287
-0.0037897148
0.0030139221
-0.011826986
0.0065329066
-0.02055261
0.011240072
-0.029839777
0.016992725
-0.039543474
0.02361858
-0.049495284
0.030918257
-0.059514958
0.038673364
-0.069424345
0.046658819
-0.079060615
0.054657441
-0.088288214
0.062474495
-0.097008093
0.069949982
-0.10516288
0.076966976
-0.11273751
0.083455096
-0.11975554
0.089389087
-0.12627217
0.09478327
-0.13236517
0.099683238
-0.13812528
0.10415641
-0.14364729
0.10828299
-0.14902307
-0.15433377
0.11215324
0.00085606033
-0.0046457752
0.0031720663
-0.014142992
0.006787237
-0.024167781
0.01152982
-0.03458236
0.017203458
-0.045217111
0.023586577
-0.055878404
0.030439907
-0.066368288
0.037519361
-0.076503799
0.044591829
-0.086133083
0.051451027
-0.095147413
0.057930646
-0.10348771
0.063912777
-0.11114501
0.069330629
-0.11815536
0.074165659
-0.12459058
0.078440202
-0.13054671
0.082207263
-0.13613223
0.085539408
-0.14145742
0.088518446
-0.14662633
0.091227223
-0.15173184
-0.15685223
0.093745687
0.00089026386
-0.005536039
0.0032482882
-0.016501016
0.0068576318
-0.027777124
0.011492479
-0.039217207
0.016906828
-0.050631461
0.022838916
-0.061810492
0.029023692
-0.072553063
0.03520927
-0.082689377
0.041173942
-0.092097755
0.0467404
-0.10071387
0.051784648
-0.10853196
0.056238385
-0.11559875
0.0600851
-0.12200208
0.06335119
-0.12785667
0.066094138
-0.13328966
0.068389961
-0.13842805
0.07032181
-0.14338927
0.071971104
-0.14827563
0.073411776
-0.15317252
-0.15814787
0.07470741
0.00089981956
-0.0064358586
0.0032333848
-0.018834582
0.0067291719
-0.031272912
0.011111188
-0.043599223
0.016092498
-0.055612772
0.021384636
-0.06710263
0.026713896
-0.077882322
0.031839122
-0.087814603
0.036567083
-0.096825716
0.040762258
-0.10490905
0.044349447
-0.11211915
0.047309307
-0.11855861
0.049668347
-0.12436112
0.051485738
-0.12967406
0.052839432
-0.13464335
0.053813709
-0.13940233
0.054489583
-0.14406514
0.054938675
-0.14872472
0.055220386
-0.15345423
0.055380803
-0.15830828
-0.00020237892
0.00020237888
4.7153586e-11
-0.00067774855
0.0004753696
3.08181e-11
-0.0013424297
0.00066468115
2.4372249e-11
-0.0021323002
0.00078987042
3.127776e-11
-0.0029957812
0.00086348102
3.7093802e-11
-0.0038907504
0.00089496915
3.7200059e-11
-0.0047823076
0.00089155717
3.4677685e-11
-0.0056409061
0.00085859845
2.9130594e-11
-0.0064408819
0.0007999758
2.4001441e-11
-0.007159303
0.00071842109
1.7891587e-11
-0.0077750509
0.00061574782
1.3130759e-11
-0.0082680851
0.00049303419
8.2888988e-12
-0.0086188638
0.00035077875
4.6655862e-12
-0.0088079105
0.00018904666
1.2667706e-12
-0.0088155584
7.6478889e-06
-1.3143029e-12
-0.0086219746
-0.00019358379
-3.5997352e-12
-0.0082074237
-0.00041455086
-5.4001645e-12
-0.0075518627
-0.00065556105
-6.9097122e-12
-0.0066345348
-0.00091732781
-8.0299546e-12
-0.0011862475
-0.0054482873
-8.8275909e-12
-0.00018797507
0.00039035395
-0.0006250089
0.00091240345
-0.0012287568
0.001268429
-0.0019351998
0.0014963135
-0.0026921463
0.0016204275
-0.0034562926
0.0016591155
-0.0041910768
0.0016263413
-0.004864869
0.0015323907
-0.0054495339
0.0013846408
-0.0059192957
0.0011881829
-0.0062498223
0.00094627441
-0.0064174838
0.00066069571
-0.0063987477
0.00033204262
-0.0061696996
-4.0001441e-05
-0.0057057183
-0.00045633336
-0.0049813957
-0.00091790644
-0.0039707522
-0.0014251943
-0.0026471581
-0.0019791552
-0.00098318305
-0.0025813028
-0.0032018213
0.0010323907
-0.0001589283
0.00054928226
-0.00051889279
0.0012723679
-0.0010007724
0.0017503087
-0.0015412628
0.0020368039
-0.002087354
0.0021665187
-0.0025937395
0.0021655011
-0.0030208721
0.002053474
-0.0033332962
0.0018448148
-0.0034983024
0.0015496469
-0.0034848514
0.0011747319
-0.0032626903
0.0007241133
-0.0028016325
0.00019963786
-0.002070924
-0.00039866581
-0.00103873
-0.0010721955
0.00032829532
-0.0018233587
0.0020652845
-0.0026548957
0.0042091171
-0.0035690269
0.0067981133
-0.0045681514
0.009871965
-0.0056551545
-0.0067798093
0.013449953
-0.00011756719
0.00066684945
-0.00036699913
0.0015217999
-0.00067351446
0.002056824
-0.00097482631
0.0023381157
-0.001216854
0.0024085463
-0.0013515926
0.0023002397
-0.0013354558
0.0020373372
-0.0011278209
0.0016371799
-0.0006898325
0.0011116585
1.6549921e-05
0.00046834948
0.0010293358
-0.00028867263
0.0023871508
-0.0011581771
0.0041297817
-0.0021412967
0.0062986581
-0.0032410719
0.0089373586
-0.0044620591
0.012092167
-0.0058097043
0.015812448
-0.007289308
0.020150346
-0.0089060487
0.02516057
-0.010665379
-0.012492732
0.030873493
-6.6907642e-05
0.00073375709
-0.00017916628
0.0016340585
-0.00026653288
0.0021441906
-0.00026768915
0.002339272
-0.00012718965
0.0022680468
0.00020617495
0.0019668751
0.00078070643
0.0014628057
0.0016429685
0.00077491785
0.0028387563
-8.412936e-05
0.0044138827
-0.0011067769
0.0064147413
-0.0022895312
0.008888723
-0.0036321589
0.011884542
-0.0051371154
0.015452564
-0.006809094
0.019645182
-0.0086546774
0.024517436
-0.010681958
0.030127889
-0.012899761
0.036539141
-0.0153173
0.043818588
-0.017944826
-0.020682704
0.05200856
-9.9843984e-06
0.00074374149
3.4536053e-05
0.0015895381
0.00019989292
0.0019788338
0.00054677119
0.0019923938
0.0011322565
0.0016825615
0.002010996
0.0010881356
0.0032361621
0.00023763968
0.0048603355
-0.00084925562
0.0069361633
-0.0021599571
0.0095167325
-0.0036873461
0.012655779
-0.0054285777
0.016407792
-0.0073841719
0.020827941
-0.0095572642
0.025971913
-0.011953066
0.031895817
-0.014578581
0.038656481
-0.017442622
0.046312639
-0.020555919
0.054926988
-0.023931649
0.064570025
-0.027587864
-0.031405815
0.075293136
5.0751742e-05
0.00069298975
0.0002656596
0.0013746302
0.00070825875
0.0015362346
0.0014390386
0.0012616139
0.002516834
0.00060476604
0.0039995874
-0.00039461771
0.0059449448
-0.0017077177
0.008410645
-0.0033149559
0.01145465
-0.0052039623
0.015135114
-0.0073678102
0.019510115
-0.0098035788
0.024637128
-0.012511184
0.030572287
-0.015492423
0.037369491
-0.018750271
0.045079469
-0.022288559
0.053749232
-0.026112385
0.063422889
-0.030229576
0.074145041
-0.034653801
0.08596972
-0.039412543
-0.044388776
0.098952681
0.00011379692
0.00057919283
0.00050850594
0.00097992121
0.0012459882
0.00079875231
0.0023867885
0.00012081364
0.0039912586
-0.00099970408
0.0061199027
-0.0025232618
0.0088333578
-0.0044211728
0.012192217
-0.0066738153
0.016256625
-0.0092683706
0.021085533
-0.012196718
0.026735658
-0.015453703
0.033260159
-0.019035686
0.04070705
-0.022939314
0.049117389
-0.02716061
0.058523387
-0.031694557
0.068946777
-0.036535775
0.080398636
-0.041681436
0.092882505
-0.04713767
0.10640588
-0.052935922
-0.058995986
0.12101309
0.0001784966
0.00040069623
0.00076003305
0.00039838476
0.0018053462
-0.00024656084
0.003374727
-0.0014485672
0.005529017
-0.003153994
0.0083293514
-0.0053235962
0.011836535
-0.0079283564
0.016110119
-0.0109474
0.021207122
-0.014365373
0.027180404
-0.01817
0.034076743
-0.022350042
0.04193463
-0.026893573
0.050781843
-0.031786527
0.060632807
-0.037011575
0.071485746
-0.042547495
0.083319671
-0.0483697
0.096092175
-0.054453941
0.10974077
-0.060786268
0.12419638
-0.067391528
-0.074274962
0.13947535
0.00024512819
0.0010199531
0.002383349
0.0043938779
0.0071105749
0.010591942
0.014894363
0.020070184
0.026165466
0.033217489
0.04125215
0.050281409
0.060300924
0.071287958
0.083199382
0.095969176
0.1095037
0.12366411
0.13818366
0.15258795
-0.0035076415
-0.0019406458
-1.3285038e-11
-0.0012858333
-0.0022218082
-1.3995364e-11
0.0011948024
-0.0024806356
-1.4024378e-11
0.0038773661
-0.0026825638
-1.2801913e-11
0.0067350544
-0.0028576883
-1.0630409e-11
0.0097505613
-0.0030155069
-5.8082512e-12
0.012904952
-0.0031543911
-1.0766703e-13
0.016180205
-0.0032752528
7.6773452e-12
0.019560618
-0.003380413
1.7237232e-11
0.023031973
-0.0034713546
2.8578833e-11
0.026580982
-0.0035490097
4.1419569e-11
0.030195223
-0.0036142402
5.5528004e-11
0.03386305
-0.0036678277
7.0362081e-11
0.037573469
-0.0037104189
8.5325822e-11
0.041316028
-0.0037425588
9.94117e-11
0.045080755
-0.003764727
1.1148827e-10
0.048858109
-0.0037773546
1.1995891e-10
0.052638947
-0.0037808384
1.2315893e-10
0.056414502
-0.0037755548
1.1905214e-10
0.060176374
-0.0037618718
1.0573381e-10
0.063916531
-0.0037401572
8.1152222e-11
0.067627316
-0.0037107853
4.3780365e-11
0.071301456
-0.0036741406
-7.6286981e-12
0.074932077
-0.0036306201
-7.3139718e-11
0.07851271
-0.0035806333
-1.5192233e-10
0.082037312
-0.0035246012
-2.4110431e-10
0.085500266
-0.0034629539
-3.3628807e-10
0.088896394
-0.0033961279
-4.3023312e-10
0.092220957
-0.0033245626
-5.139904e-10
0.095469654
-0.0032486961
-5.7560774e-10
0.098638617
-0.0031689628
-6.0242163e-10
0.10172441
-0.0030857889
-5.8004107e-10
0.104724
-0.0029995904
-4.9643583e-10
0.10763477
-0.0029107708
-3.4128248e-10
0.11045449
-0.0028197197
-1.1215833e-10
0.1131813
-0.0027268129
1.8641942e-10
0.11581371
-0.0026324133
5.3519813e-10
0.11835059
-0.0025368734
9.0375504e-10
0.12079113
-0.0024405424
1.2432549e-09
0.12313489
-0.0023437671
1.4961584e-09
0.12538183
-0.002246934
1.5947068e-09
0.12753222
-0.0021503947
1.4789454e-09
0.12958706
-0.0020548399
1.1070586e-09
0.13154732
-0.0019602587
4.7658788e-10
0.13341709
-0.0018697747
-3.6239517e-10
0.1351949
-0.0017778066
-1.2960386e-09
0.13690521
-0.0017103082
-2.1391722e-09
0.13850387
-0.0015986616
-2.6607411e-09
0.14019177
-0.0016878949
-2.7433939e-09
-0.0013322912
-1.2998441e-09
0.0028530244
-0.0037612794
0.0049501916
-0.0043189754
0.0072930738
-0.0048235179
0.0098192289
-0.0052087189
0.012507596
-0.0055460551
0.015345849
-0.0058537603
0.018317248
-0.0061257901
0.021405386
-0.0063633908
0.024596244
-0.0065712714
0.027877061
-0.0067521709
0.031235703
-0.0069076522
0.034660691
-0.0070392277
0.038141166
-0.0071483034
0.041666784
-0.0072360366
0.045227626
-0.0073034008
0.048814159
-0.00735126
0.052417204
-0.0073803997
0.056027917
-0.0073915509
0.059637777
-0.0073854153
0.063238593
-0.0073626871
0.066822503
-0.0073240678
0.070381996
-0.0072702774
0.073909916
-0.0072020608
0.077399487
-0.0071201912
0.080844323
-0.0070254695
0.084238443
-0.0069187214
0.087576282
-0.0068007926
0.090852697
-0.0066725427
0.094062972
-0.0065348378
0.097202819
-0.0063885432
0.10026837
-0.0062345168
0.10325619
-0.0060736014
0.10616322
-0.0059066202
0.10898682
-0.0057343722
0.11172473
-0.0055576295
0.11437505
-0.0053771374
0.11693625
-0.0051936167
0.11940715
-0.0050077677
0.12178689
-0.0048202859
0.12407499
-0.0046318614
0.12627132
-0.0044432661
0.12837613
-0.0042552019
0.13039033
-0.0040690474
0.13231486
-0.0038847847
0.13415371
-0.0037086288
0.13590542
-0.0035295161
0.13759399
-0.0033988774
0.13917631
-0.0031809843
0.14084807
-0.0033596471
-0.0026621291
0.015021309
-0.0053326353
0.01685243
-0.0061500967
0.01890599
-0.0068770781
0.021112061
-0.0074147898
0.023459009
-0.0078930025
0.02594318
-0.0083379314
0.028551956
-0.0087345667
0.031271859
-0.009083293
0.034091786
-0.0093911987
0.037001509
-0.0096618934
0.039990906
-0.0098970494
0.043050117
-0.010098439
0.046169619
-0.010267805
0.049340154
-0.010406573
0.052552695
-0.010515942
0.05579843
-0.010596995
0.059068769
-0.010650739
0.062355351
-0.010678132
0.065650052
-0.010680116
0.068945007
-0.010657643
0.07223263
-0.010611691
0.075505633
-0.010543281
0.078757052
-0.010453479
0.081980265
-0.010343404
0.085169014
-0.010214219
0.088317423
-0.01006713
0.091420007
-0.0099033763
0.094471684
-0.0097242201
0.097467781
-0.0095309349
0.10040404
-0.0093247971
0.10327659
-0.0091070706
0.10608199
-0.0088790008
0.10881717
-0.0086418043
0.11147946
-0.0083966633
0.11406656
-0.0081447217
0.1165765
-0.0078870845
0.11900771
-0.0076248222
0.12135892
-0.0073589765
0.12362921
-0.0070905834
0.12581803
-0.0068206734
0.12792516
-0.0065504005
0.12995078
-0.0062808161
0.13189571
-0.0060139805
0.13376081
-0.0057498846
0.13554993
-0.0054977515
0.1372617
-0.0052412808
0.13891914
-0.0050563221
0.14048149
-0.0047433347
0.14213381
-0.0050119642
-0.004000205
0.032056804
-0.0065159464
0.033472022
-0.0075653153
0.035077549
-0.008482605
0.036800408
-0.0091376486
0.038641284
-0.0097338788
0.040606476
-0.010303123
0.04268881
-0.010816901
0.044878766
-0.011273248
0.047168765
-0.011681199
0.049551582
-0.01204471
0.052019507
-0.012364974
0.054564585
-0.012643517
0.057178805
-0.012882025
0.059854125
-0.013081892
0.062582482
-0.013244299
0.065355833
-0.013370346
0.068166196
-0.013461102
0.071005695
-0.013517631
0.073866596
-0.013541018
0.076741349
-0.013532395
0.07962262
-0.013492962
0.082503331
-0.013423991
0.085376686
-0.013326835
0.088236205
-0.013202923
0.091075743
-0.013053757
0.093889512
-0.0128809
0.096672101
-0.012685965
0.099418478
-0.012470598
0.10212401
-0.012236465
0.10478445
-0.011985235
0.10739594
-0.011718565
0.10995503
-0.011438089
0.11245863
-0.011145405
0.11490403
-0.010842066
0.11728889
-0.010529577
0.1196112
-0.010209394
0.12186931
-0.0098829308
0.12406189
-0.0095515638
0.12618797
-0.0092166647
0.1282469
-0.0088796019
0.13023841
-0.0085419091
0.13216258
-0.0082049879
0.13402017
-0.0078715722
0.13581198
-0.0075416859
0.13754166
-0.0072274368
0.13920804
-0.0069076552
0.14083276
-0.0066810464
0.14237853
-0.0062891094
0.14401515
-0.0066485782
-0.0053624144
0.052648872
-0.0071562587
0.053489479
-0.0084059215
0.054483614
-0.0094767402
0.055565591
-0.010219625
0.056750226
-0.010918514
0.058051813
-0.01160471
0.059468864
-0.012233952
0.060996511
-0.012800895
0.062630543
-0.01331523
0.064366362
-0.013780529
0.066198448
-0.014197061
0.068120532
-0.014565601
0.070125849
-0.014887342
0.072207297
-0.015163341
0.07435753
-0.015394532
0.076569034
-0.01558185
0.078834219
-0.015726286
0.081145489
-0.015828901
0.083495317
-0.015890846
0.0858763
-0.015913378
0.088281211
-0.015897874
0.090703051
-0.01584583
0.093135078
-0.015758862
0.095570853
-0.015638697
0.09800426
-0.015487164
0.10042953
-0.015306174
0.10284127
-0.015097705
0.10523446
-0.014863781
0.10760445
-0.014606456
0.109947
-0.014327785
0.11225825
-0.014029814
0.11453471
-0.013714557
0.1167733
-0.013383991
0.11897127
-0.013040033
0.12112624
-0.012684547
0.12323618
-0.012319337
0.12529941
-0.011946154
0.12731455
-0.011566708
0.12928059
-0.011182708
0.13119685
-0.010795858
0.13306301
-0.010408074
0.13487914
-0.01002111
0.13664593
-0.0096383659
0.13836417
-0.0092599298
0.14003738
-0.0089006397
0.14166464
-0.0085349199
0.14326595
-0.0082823583
0.14480844
-0.0078315963
0.14644298
-0.0082831221
-0.0067719974
0.075222137
-0.007085259
0.075327113
-0.0085108984
0.075551498
-0.0097011246
0.075851806
-0.010519933
0.076256073
-0.011322781
0.076781152
-0.012129789
0.077430078
-0.012882879
0.078202782
-0.013573599
0.079097572
-0.01421002
0.080111299
-0.014794256
0.081239721
-0.015325483
0.082477542
-0.015803422
0.083818577
-0.016228377
0.085256047
-0.016600811
0.086782775
-0.01692126
0.088391309
-0.017190385
0.090074031
-0.017409008
0.091823262
-0.017578132
0.093631359
-0.017698943
0.095490784
-0.017772804
0.097394172
-0.017801262
0.099334381
-0.017786039
0.10130454
-0.017729023
0.10329809
-0.017632248
0.10530881
-0.017497883
0.10733084
-0.017328201
0.10935869
-0.01712556
0.11138729
-0.016892375
0.11341193
-0.016631098
0.11542833
-0.016344183
0.11743259
-0.016034073
0.1194212
-0.015703175
0.12139106
-0.015353846
0.12333941
-0.014988381
0.12526387
-0.014609005
0.1271624
-0.014217876
0.12903334
-0.013817088
0.13087532
-0.013408694
0.13268736
-0.01299474
0.13446878
-0.012577277
0.13621931
-0.012158604
0.13793904
-0.011740841
0.13962871
-0.011328041
0.14128918
-0.0109204
0.14292385
-0.010535306
0.14453224
-0.010143306
0.14613248
-0.0098826037
0.14769687
-0.0093959847
0.14935493
-0.0099411809
-0.0082610685
0.098025701
-0.006158279
0.097258443
-0.0077436404
0.096582169
-0.0090248498
0.095997749
-0.0099355136
0.095541313
-0.010866345
0.095224093
-0.011812569
0.095051456
-0.012710242
0.095027405
-0.013549548
0.095151474
-0.014334088
0.095420396
-0.015063179
0.095829813
-0.015734899
0.096374314
-0.016347922
0.097047414
-0.016901477
0.097841881
-0.017395278
0.098750032
-0.017829411
0.099763895
-0.018204248
0.10087533
-0.018520447
0.10207617
-0.018778964
0.10335826
-0.018981039
0.10471364
-0.019128175
0.1061345
-0.019222125
0.10761333
-0.019264874
0.10914293
-0.019258621
0.11071643
-0.019205749
0.11232735
-0.019108804
0.11396962
-0.018970463
0.11563755
-0.018793497
0.11732593
-0.018580751
0.11902994
-0.018335105
0.12074519
-0.018059441
0.12246775
-0.017756631
0.12419407
-0.017429497
0.12592103
-0.017080802
0.12764589
-0.016713238
0.12936629
-0.016329413
0.13108027
-0.015931854
0.1327862
-0.015523018
0.13448282
-0.015105311
0.13616922
-0.014681138
0.13784484
-0.014252903
0.13950955
-0.013823307
0.14116355
-0.013394844
0.14280773
-0.012972222
0.14444311
-0.01255578
0.14607308
-0.012165279
0.14769772
-0.011767942
0.14933326
-0.011518148
0.15095763
-0.011020352
0.15267779
-0.011661345
-0.0098713877
0.11918946
-0.0043346492
0.11749688
-0.006051052
0.11585737
-0.0073853484
0.11435486
-0.0084330028
0.11302558
-0.0095370635
0.11186704
-0.010654026
0.1108847
-0.011727905
0.11008485
-0.012749699
0.1094669
-0.013716137
0.10902625
-0.014622531
0.1087571
-0.015465744
0.10865278
-0.016243598
0.10870569
-0.016954388
0.10890752
-0.017597115
0.10924956
-0.018171448
0.10972286
-0.018677544
0.11031839
-0.019115975
0.11102714
-0.019487718
0.11184023
-0.019794135
0.11274899
-0.020036933
0.11374501
-0.020218139
0.1148202
-0.020340063
0.11596685
-0.020405279
0.11717768
-0.02041658
0.11844583
-0.020376948
0.11976488
-0.020289517
0.12112892
-0.020157534
0.12253249
-0.019984319
0.12397061
-0.019773229
0.1254388
-0.019527631
0.12693303
-0.019250858
0.12844973
-0.018946194
0.12998577
-0.018616849
0.13153848
-0.018265942
0.13310556
-0.017896497
0.13468515
-0.017511444
0.13627576
-0.017113628
0.13787628
-0.016705835
0.13948599
-0.016290849
0.14110455
-0.015871456
0.14273201
-0.015450772
0.14436886
-0.015031688
0.1460162
-0.014619568
0.14767536
-0.01421494
0.14934984
-0.013839759
0.15104038
-0.013458476
0.15276137
-0.013239141
0.15449662
-0.012755599
0.15633041
-0.01349514
-0.011654302
0.1368964
-0.0017556908
0.13437845
-0.0035331045
0.1318199
-0.0048267951
0.12946285
-0.0060759537
0.12733451
-0.0074087258
0.12541626
-0.0087357742
0.12371092
-0.01002257
0.12222359
-0.011262368
0.12095271
-0.012445261
0.11989252
-0.013562338
0.1190355
-0.014608728
0.11837332
-0.015581411
0.11789697
-0.016478037
0.11759692
-0.017297071
0.11746332
-0.018037845
0.11748614
-0.01870037
0.11765538
-0.019285213
0.11796111
-0.019793449
0.11839361
-0.020226628
0.1189434
-0.020586732
0.11960139
-0.020876123
0.12035884
-0.02109751
0.12120746
-0.021253904
0.12213946
-0.021348575
0.12314752
-0.021385011
0.12422487
-0.021366871
0.12536527
-0.021297933
0.12656302
-0.021182063
0.12781295
-0.021023159
0.12911044
-0.020825122
0.13045139
-0.020591811
0.13183222
-0.020327023
0.13324983
-0.020034463
0.13470162
-0.019717725
0.13618541
-0.019380296
0.13769952
-0.019025546
0.13924264
-0.01865675
0.14081391
-0.018277106
0.14241287
-0.017889811
0.14403948
-0.017498063
0.14569413
-0.01710542
0.14737764
-0.016715195
0.14909149
-0.016333421
0.1508374
-0.015960855
0.15261912
-0.015621476
0.15443815
-0.015277501
0.15630716
-0.015108154
0.15821596
-0.014664397
0.16022658
-0.015505759
-0.01366985
0.15005246
0.00077980248
0.14676352
-0.00024417093
0.1434662
-0.001529471
0.14041844
-0.0030281908
0.13762356
-0.0046138496
0.13507531
-0.006187529
0.13277554
-0.0077227915
0.13072431
-0.0092111404
0.12891919
-0.010640146
0.12735499
-0.011998134
0.12602387
-0.01327761
0.12491644
-0.014473974
0.1240225
-0.015584103
0.12333141
-0.016605981
0.12283219
-0.017538618
0.12251371
-0.018381894
0.12236491
-0.019136414
0.12237488
-0.019803415
0.12253295
-0.020384701
0.12282881
-0.020882591
0.12325254
-0.021299857
0.12379471
-0.021639675
0.12444637
-0.021905572
0.12519917
-0.02210137
0.1260453
-0.022231139
0.12697756
-0.022299134
0.12798938
-0.022309752
0.12907479
-0.02226747
0.13022843
-0.022176803
0.13144556
-0.022042255
0.13272203
-0.02186828
0.13405426
-0.02165925
0.13543922
-0.021419425
0.13687443
-0.021152936
0.13835792
-0.02086378
0.13988819
-0.020555819
0.14146424
-0.020232799
0.14308551
-0.019898379
0.1447519
-0.019556203
0.14646375
-0.019209913
0.14822188
-0.018863547
0.15002754
-0.018520858
0.1518827
-0.018188576
0.15378954
-0.017867696
0.1557522
-0.017584141
0.15777288
-0.017298184
0.15986314
-0.017198412
0.16201721
-0.016818468
0.16427992
-0.017768466
-0.015982993
0.18890933
0.0053818812
-0.19351141
0.18509931
0.0035658445
0.1817073
0.0018625405
0.1785622
0.00011691082
0.17562667
-0.0016783156
0.17287567
-0.00343653
0.17029098
-0.0051381032
0.16786361
-0.0067837697
0.16558967
-0.0083662124
0.16346702
-0.0098754818
0.16149379
-0.011304379
0.15966787
-0.012648054
0.15798662
-0.013902852
0.15644675
-0.015066107
0.15504433
-0.016136201
0.1537749
-0.017112465
0.15263353
-0.017995047
0.15161493
-0.018784815
0.15071352
-0.019483292
0.14992353
-0.020092596
0.14923905
-0.020615379
0.14865414
-0.021054762
0.14816285
-0.021414281
0.1477593
-0.021697822
0.14743773
-0.021909565
0.14719251
-0.022053917
0.14701822
-0.022135459
0.14690963
-0.022158885
0.14686178
-0.022128947
0.14686993
-0.022050404
0.14692962
-0.021927977
0.14703669
-0.021766315
0.14718722
-0.02156996
0.14737762
-0.021343329
0.14760454
-0.021090704
0.14786495
-0.020816233
0.1481561
-0.020523948
0.14847552
-0.020217792
0.14882102
-0.019901705
0.14919073
-0.019579624
0.1495831
-0.019255913
0.14999688
-0.018934646
0.15043133
-0.018623023
0.15088592
-0.018322283
0.15136127
-0.018059493
0.15185724
-0.017794155
0.15237833
-0.017719502
0.15292021
-0.017360351
0.15350596
-0.018354208
-0.01657658
0.2168582
0.00878019
-0.22025651
0.21338434
0.0070397085
0.21017155
0.0050753293
0.20706626
0.0032221994
0.20401969
0.0013682548
0.20106279
-0.00047963594
0.19821246
-0.0022877689
0.1954732
-0.0040445077
0.19285091
-0.0057439234
0.19035242
-0.0073769977
0.18798294
-0.0089348999
0.18574587
-0.010410977
0.18364319
-0.011800172
0.1816756
-0.013098524
0.17984258
-0.014303178
0.1781425
-0.015412379
0.1765728
-0.016425351
0.17513018
-0.017342194
0.17381068
-0.018163795
0.17260985
-0.018891768
0.17152285
-0.019528375
0.17054454
-0.020076451
0.1696696
-0.02053934
0.16889259
-0.02092082
0.16820806
-0.021225032
0.16761056
-0.021456413
0.16709473
-0.021619628
0.16665534
-0.021719497
0.16628733
-0.021760944
0.16598586
-0.021748927
0.16574628
-0.021688397
0.16556421
-0.021584248
0.16543553
-0.021441284
0.1653564
-0.021264196
0.16532324
-0.021057546
0.16533278
-0.020825769
0.16538202
-0.020573185
0.16546826
-0.020304036
0.16558911
-0.02002256
0.1657425
-0.019733007
0.16592666
-0.019440074
0.1661402
-0.019148191
0.16638213
-0.018864953
0.16665196
-0.018592107
0.16694953
-0.018357066
0.16727609
-0.018120715
0.16763087
-0.018074286
0.16802217
-0.01775165
0.16843202
-0.018764056
-0.017051393
0.24376709
0.011504122
-0.24649102
0.24091667
0.0098901239
0.23806348
0.0079285168
0.23521654
0.0060691377
0.23233877
0.0042460326
0.22945097
0.002408158
0.22658438
0.00057882109
0.22375829
-0.0012184186
0.22098862
-0.0029742528
0.21829131
-0.0046796818
0.2156802
-0.0063237971
0.21316631
-0.0078970866
0.21075825
-0.0093921053
0.20846256
-0.01080284
0.20628389
-0.012124509
0.20422512
-0.013353606
0.2022876
-0.014487831
0.20047137
-0.015525966
0.19877535
-0.016467776
0.19719751
-0.017313927
0.19573503
-0.018065896
0.19438447
-0.018725887
0.19314187
-0.019296742
0.19200291
-0.019781861
0.190963
-0.020185114
0.19001735
-0.020510765
0.18916111
-0.020763386
0.18838939
-0.020947784
0.18769738
-0.021068927
0.18708032
-0.021131876
0.18653366
-0.02114173
0.18605298
-0.021103565
0.18563409
-0.021022401
0.18527306
-0.020903168
0.1849662
-0.020750683
0.18471008
-0.020569652
0.18450158
-0.020364681
0.18433785
-0.020140304
0.18421635
-0.019901065
0.18413488
-0.019651538
0.18409156
-0.019396746
0.18408489
-0.019141522
0.18411369
-0.018893759
0.18417757
-0.018655983
0.18427562
-0.018455115
0.18441056
-0.018255661
0.18457602
-0.018239742
0.18479388
-0.017969508
0.18500028
-0.018970455
-0.017384975
0.26927481
0.013537056
-0.27130774
0.26710678
0.012058149
0.26476504
0.010270257
0.26232584
0.0085083418
0.25979711
0.0067747598
0.25718904
0.0050162287
0.25452775
0.003240113
0.25183741
0.001471922
0.24913801
-0.00027486141
0.24644938
-0.0019910447
0.24379078
-0.0036652045
0.24117937
-0.005285674
0.23862987
-0.0068425997
0.23615476
-0.008327731
0.23376434
-0.0097340921
0.23146678
-0.011056042
0.22926825
-0.012289303
0.22717315
-0.01343087
0.22518429
-0.014478913
0.22330305
-0.015432692
0.22152962
-0.016292464
0.21986312
-0.01705939
0.21830182
-0.017735439
0.21684325
-0.018323289
0.21548437
-0.018826232
0.21422168
-0.019248084
0.21305138
-0.019593084
0.21196941
-0.019865814
0.2109716
-0.020071109
0.2100537
-0.020213977
0.2092115
-0.020299533
0.20844087
-0.020332935
0.2077378
-0.020319331
0.20709845
-0.020263821
0.2065192
-0.02017143
0.20599665
-0.020047099
0.20552766
-0.019895691
0.20510937
-0.019722018
0.20473923
-0.019530923
0.20441499
-0.019327299
0.20413474
-0.019116496
0.20389699
-0.018903765
0.20370046
-0.018697233
0.20354487
-0.018500393
0.20342875
-0.018338992
0.20335601
-0.018182926
0.20331549
-0.01819922
0.20334041
-0.017994432
0.20332559
-0.018955635
-0.017555132
0.29298553
0.014868183
-0.29431665
0.2915063
0.013537375
0.28978382
0.011992734
0.28788521
0.010406958
0.28584532
0.0088146514
0.28367496
0.0071865801
0.28139256
0.0055225128
0.27902136
0.0038431271
0.27658265
0.0021638463
0.2740966
0.00049500368
0.27158341
-0.0011520163
0.26906281
-0.0027650707
0.26655312
-0.0043329049
0.26407092
-0.0058455365
0.26163097
-0.0072941375
0.25924602
-0.0086710921
0.25692683
-0.0099701185
0.25468223
-0.01118627
0.2525192
-0.012315878
0.250443
-0.013356498
0.24845737
-0.014306832
0.24656463
-0.01516665
0.24476589
-0.015936694
0.24306118
-0.016618578
0.24144963
-0.017214691
0.23992964
-0.017728094
0.23849898
-0.018162415
0.23715492
-0.018521755
0.23589439
-0.018810586
0.23471408
-0.019033667
0.23361051
-0.019195956
0.23258011
-0.019302543
0.23161936
-0.019358579
0.23072478
-0.019369236
0.22989301
-0.019339661
0.22912088
-0.019274968
0.22840541
-0.019180228
0.22774389
-0.0190605
0.22713387
-0.018920895
0.22657318
-0.018766618
0.22606001
-0.018603325
0.22559295
-0.018436698
0.22517075
-0.018275034
0.22479327
-0.018122912
0.22445868
-0.018004405
0.22417175
-0.01789599
0.22391763
-0.017945105