/*--------------------------------*- C++ -*----------------------------------*\
  =========                 |
  \\      /  F ield         | OpenFOAM: The Open Source CFD Toolbox
   \\    /   O peration     | Website:  https://openfoam.org
    \\  /    A nd           | Version:  6
     \\/     M anipulation  |
\*---------------------------------------------------------------------------*/
FoamFile
{
    version     2.0;
    format      ascii;
    class       volVectorField;
    location    "145";
    object      U_0;
}
// * * * * * * * * * * * * * * * * * * * * * * * * * * * * * * * * * * * * * //

dimensions      [0 1 -1 0 0 0 0];

internalField   nonuniform List<vector> 
9200
(
(0.0010393691 0.0014199701 -5.9202023e-20)
(0.013676167 -0.0020584196 4.6042689e-20)
(0.038313383 -0.0058666607 -3.8501866e-20)
(0.072274803 -0.0097636382 -6.0257937e-20)
(0.11376528 -0.013490203 1.8827034e-20)
(0.16158163 -0.016605874 3.2743992e-20)
(0.21467244 -0.018817543 -1.2268057e-20)
(0.27206726 -0.019974191 9.2688996e-21)
(0.33285764 -0.020011566 1.6803478e-20)
(0.39616513 -0.018929438 1.4848124e-21)
(0.46111745 -0.016780247 -2.1456418e-20)
(0.52683899 -0.013658209 2.0670085e-20)
(0.59245301 -0.0096885253 -4.0422297e-20)
(0.65709382 -0.0050163561 -2.1133993e-20)
(0.71992738 0.00020492535 5.9046767e-21)
(0.78017781 0.0058233979 -2.5131797e-20)
(0.83717347 0.011712049 2.5217251e-20)
(0.89047168 0.017917676 2.2243373e-20)
(0.93967363 0.024572499 -2.9926251e-22)
(0.98205476 0.028292396 -1.6691438e-21)
(0.0052522194 -0.001346294 -1.7059403e-20)
(0.026962649 -0.008989101 3.9747836e-20)
(0.061670414 -0.014809885 2.3576371e-20)
(0.10629537 -0.019172433 -1.1569791e-19)
(0.15873634 -0.022214201 -1.272713e-20)
(0.21753443 -0.023720929 7.3297292e-20)
(0.28137411 -0.023595378 -3.5476511e-20)
(0.34900741 -0.021869284 -8.3905832e-21)
(0.41924084 -0.018645881 3.4287656e-20)
(0.49091132 -0.014081236 -4.3259735e-20)
(0.56287442 -0.0083763869 -3.0338605e-20)
(0.63401077 -0.0017670746 7.1921757e-20)
(0.70324577 0.0054878659 3.8294217e-20)
(0.76957843 0.01311805 -6.7976896e-20)
(0.83211517 0.020851441 1.4623775e-20)
(0.89010314 0.028418998 -3.6733608e-20)
(0.94297195 0.035568895 -1.3777255e-20)
(0.99043506 0.04214003 7.0975265e-20)
(1.0323587 0.047714372 2.9642278e-20)
(1.0669374 0.049138681 -8.3478649e-20)
(0.010858485 -0.0040424445 3.6773554e-20)
(0.043953618 -0.015431169 2.5047408e-21)
(0.090515825 -0.022552425 2.2341779e-20)
(0.147112 -0.026497544 9.8117092e-22)
(0.21134338 -0.027886521 -4.0774065e-20)
(0.28146876 -0.026795373 1.8576453e-20)
(0.35587175 -0.02338302 1.3420341e-20)
(0.43299167 -0.01792186 -5.0327864e-20)
(0.51132661 -0.010736006 5.7262056e-20)
(0.5894282 -0.0021842715 1.4256755e-20)
(0.66591142 0.0073474751 -5.4300948e-20)
(0.73948278 0.017459788 -1.8237504e-20)
(0.80897852 0.027756036 9.0591456e-21)
(0.87340526 0.037858687 2.3444867e-20)
(0.93197628 0.047423393 -1.1362583e-20)
(0.98413632 0.05614825 2.7877889e-20)
(1.0295766 0.063788373 -2.0188347e-20)
(1.068267 0.070203509 -7.0124053e-20)
(1.1003346 0.07511841 -2.3796455e-20)
(1.1249135 0.076640194 4.8660048e-20)
(0.017957295 -0.0064221979 2.4508074e-20)
(0.064777263 -0.020694904 5.1039361e-20)
(0.12485277 -0.028061002 1.9881747e-20)
(0.19447039 -0.03046426 1.2990127e-20)
(0.27095031 -0.029095069 1.7275749e-20)
(0.35225006 -0.024389234 -4.7720308e-20)
(0.43643292 -0.016826254 -2.5646936e-20)
(0.52162186 -0.0069769777 0)
(0.60603096 0.004566696 1.392071e-20)
(0.68798927 0.017211362 -5.8524003e-21)
(0.76597753 0.030373512 -9.7935363e-20)
(0.83867694 0.043499175 -1.5774862e-20)
(0.90501779 0.056086103 6.510356e-20)
(0.96421825 0.067703557 4.8438286e-22)
(1.015806 0.078007064 -1.5725657e-21)
(1.059618 0.086746064 2.1957625e-20)
(1.0957796 0.093771416 -5.2647623e-21)
(1.1246822 0.099064437 -6.1030102e-20)
(1.1468668 0.1025961 -4.5851538e-20)
(1.1622977 0.10341279 6.9520851e-20)
(0.026579527 -0.008205726 -3.9194251e-21)
(0.089344358 -0.024033615 -5.1256366e-21)
(0.16430813 -0.030265144 5.6599549e-20)
(0.24758207 -0.029810207 1.8539373e-20)
(0.33624276 -0.02451324 -3.1955157e-20)
(0.42795269 -0.015240092 1.2163869e-20)
(0.52047431 -0.0028516143 2.6402948e-21)
(0.6116655 0.011736822 3.3609303e-20)
(0.69954924 0.027639842 5.6599733e-21)
(0.78237065 0.044028435 -1.3204821e-20)
(0.85865645 0.060147346 6.0154378e-20)
(0.92727155 0.075340039 -5.8009606e-20)
(0.98745921 0.089072366 -1.3216682e-19)
(1.0388555 0.10094845 -5.577334e-21)
(1.0814749 0.11071644 8.3151255e-20)
(1.1156678 0.11826332 0)
(1.1420569 0.12360501 1.011901e-20)
(1.1614689 0.12688966 -1.5459862e-20)
(1.1748198 0.12829772 -8.5995132e-21)
(1.182669 0.1274481 2.0992336e-20)
(0.036667043 -0.0090896177 -5.4309119e-21)
(0.11731552 -0.024685462 4.3578848e-21)
(0.20811939 -0.028140321 -8.7630046e-21)
(0.30515802 -0.02341512 2.8472461e-20)
(0.40533669 -0.013075771 -2.9392749e-20)
(0.50607305 0.0015224236 -1.6927075e-20)
(0.60490672 0.019094935 3.7364318e-20)
(0.69955162 0.03836503 4.7595493e-21)
(0.78800611 0.058167393 -2.44362e-20)
(0.86863636 0.077482713 6.9867864e-20)
(0.94024209 0.0954583 5.2389914e-22)
(1.0020979 0.11143116 -8.0444753e-20)
(1.0539592 0.12494243 0)
(1.0960296 0.13573694 3.9542352e-20)
(1.1288943 0.14374779 5.5236356e-21)
(1.1534299 0.14906821 -7.756683e-20)
(1.170701 0.15191833 -1.9587029e-20)
(1.1818641 0.15262279 -1.2467701e-20)
(1.1880608 0.15152509 -1.4709471e-20)
(1.1901476 0.14858389 4.0420737e-20)
(0.048059031 -0.0087674397 -1.7277987e-20)
(0.14808358 -0.021932084 -2.2198561e-21)
(0.2551415 -0.020797951 3.0380564e-20)
(0.36546497 -0.01041292 3.7484379e-20)
(0.47590563 0.0059014573 -1.9944785e-20)
(0.58374435 0.026269171 -6.9163254e-20)
(0.68644377 0.048977063 -2.7995913e-20)
(0.78176412 0.072417622 7.892951e-20)
(0.86790417 0.095212278 8.5778782e-21)
(0.94359143 0.11624937 -2.4873573e-20)
(1.0081281 0.13469797 1.3642241e-20)
(1.0613893 0.15001517 -4.3194842e-21)
(1.1037715 0.16193613 0)
(1.1360996 0.17044374 2.7203619e-20)
(1.1595066 0.17572246 -7.9322819e-20)
(1.1753039 0.17810298 -3.147569e-20)
(1.1848587 0.17800734 8.1054994e-20)
(1.1894937 0.17590859 -4.2970157e-21)
(1.1904044 0.17225465 3.5561226e-21)
(1.1885094 0.16719199 2.7111723e-20)
(0.060485442 -0.006957391 -3.2414668e-20)
(0.18077828 -0.015170447 -8.1624501e-20)
(0.30389019 -0.0075836035 2.5797542e-21)
(0.42642679 0.0097032829 7.0161996e-20)
(0.54535301 0.032631485 6.2424554e-20)
(0.65798278 0.058819975 -7.1574715e-20)
(0.7619108 0.086176428 -2.8272073e-22)
(0.85518502 0.1128522 8.5522914e-20)
(0.93645565 0.13737823 4.8828269e-20)
(1.0050437 0.1586935 -5.4218661e-20)
(1.0609378 0.17613536 -9.2334642e-20)
(1.1047264 0.18941319 -3.1589975e-21)
(1.1374779 0.198559 4.2128066e-20)
(1.1605893 0.20385804 -6.6056611e-21)
(1.1756265 0.20576959 -1.2868847e-20)
(1.1841793 0.2048485 1.9690895e-20)
(1.1877443 0.20167821 4.3880831e-20)
(1.1876468 0.19682505 -4.3859639e-20)
(1.1849967 0.19077796 -1.0232253e-19)
(1.1806263 0.18377286 2.4567023e-20)
(0.073537433 -0.0034329891 -3.4979831e-20)
(0.21422749 -0.0039890589 -1.7388641e-19)
(0.35251755 0.011839351 8.2103467e-20)
(0.48562929 0.037018328 9.2767767e-20)
(0.61085539 0.066835556 5.7970729e-20)
(0.72576909 0.098481184 8.61074e-21)
(0.82835001 0.12959695 -1.0624047e-19)
(0.91719206 0.15824265 0)
(0.99162956 0.18302805 -6.874891e-20)
(1.0517542 0.20311191 -1.5202487e-20)
(1.0983404 0.21814837 5.4703709e-20)
(1.1327027 0.2282105 1.0973432e-20)
(1.1565128 0.23369219 -4.5614058e-20)
(1.1716085 0.23519897 -4.9081578e-20)
(1.179822 0.23344278 2.4287796e-20)
(1.1828466 0.22915258 4.4823107e-20)
(1.1821503 0.22300914 -5.5600673e-20)
(1.1789374 0.21560745 -1.0751172e-19)
(1.1741481 0.20742142 -3.1513614e-21)
(1.168458 0.19871794 2.7046526e-20)
(0.086650688 0.0019613856 -3.5449242e-21)
(0.24696085 0.011816643 8.7913427e-20)
(0.39884844 0.037492346 -1.6479183e-20)
(0.54040602 0.071218447 -8.4309421e-20)
(0.66950066 0.10778902 4.5164516e-20)
(0.78422136 0.14411552 4.9175587e-20)
(0.88319136 0.17775675 5.5356999e-21)
(0.96578073 0.20688492 -9.9502879e-20)
(1.0321783 0.23038798 -2.5048885e-21)
(1.0833348 0.24781542 5.0503763e-20)
(1.1208089 0.25926281 5.9855021e-21)
(1.1465576 0.26523591 -1.9717295e-20)
(1.1627125 0.26650495 -7.5704952e-20)
(1.1713781 0.26396576 -6.2554226e-21)
(1.1744777 0.25852376 4.3533536e-20)
(1.1736562 0.25101028 3.7022167e-20)
(1.1702396 0.24213329 1.9793513e-20)
(1.1652415 0.23245804 -5.2995115e-20)
(1.1594026 0.22240342 1.2957459e-20)
(1.1532263 0.2122372 8.2659448e-20)
(-0.0012932662 0.0014346643 -1.1234658e-21)
(-0.004745977 0.0031874252 2.064703e-21)
(-0.010771395 0.004135917 8.7944135e-22)
(-0.017754344 0.0045395492 -2.4410642e-21)
(-0.024740395 0.0045654289 -1.4114999e-21)
(-0.031299686 0.004326049 1.5460648e-21)
(-0.037161433 0.0039035461 -6.8701116e-21)
(-0.042147557 0.0033577268 -5.9573896e-21)
(-0.046157894 0.002731383 1.1172069e-20)
(-0.049146306 0.0020548289 -9.7428102e-21)
(-0.051100763 0.001349295 -1.9834062e-22)
(-0.05203054 0.00062941248 3.6673599e-21)
(-0.051957816 -9.4903152e-05 -6.3296243e-22)
(-0.050911937 -0.00081694855 2.2818895e-20)
(-0.048925804 -0.0015318676 3.0401446e-22)
(-0.046035332 -0.002235202 -4.0883156e-20)
(-0.042281745 -0.0029223013 7.5386167e-21)
(-0.037703342 -0.0035910775 2.3864286e-20)
(-0.032308537 -0.0042400315 -4.3852707e-20)
(-0.026156744 -0.0048211641 -2.773942e-20)
(-0.0016522056 0.0041808806 -5.3716107e-21)
(-0.005397499 0.0092681686 1.0865463e-20)
(-0.011218544 0.012007481 -1.0191538e-20)
(-0.017658078 0.013153802 3.9229846e-21)
(-0.0238565 0.013195448 4.812174e-21)
(-0.029433396 0.012462754 7.1324649e-22)
(-0.034152405 0.011197036 -2.2509637e-20)
(-0.037860464 0.0095739099 -2.0370289e-21)
(-0.04047438 0.0077189905 2.0163645e-20)
(-0.041958992 0.005721223 -5.0473888e-21)
(-0.042309004 0.0036428457 -2.1762713e-20)
(-0.041537368 0.0015266818 4.8973462e-21)
(-0.039667714 -0.00059834909 2.2635562e-20)
(-0.036729046 -0.0027128181 1.0308456e-20)
(-0.032751955 -0.0048027606 2.1854431e-20)
(-0.027769041 -0.0068555951 -1.9770862e-20)
(-0.021824606 -0.0088583225 -2.1673092e-20)
(-0.014966015 -0.010804345 2.1184776e-20)
(-0.0071286867 -0.012679139 2.681056e-20)
(0.0018747128 -0.014317379 1.5854874e-20)
(-0.0023034366 0.0065602548 -4.3568825e-21)
(-0.0065392436 0.014480242 -5.6387617e-21)
(-0.011892164 0.018710599 3.072377e-22)
(-0.017211142 0.020428237 1.0959736e-21)
(-0.021819191 0.020400375 6.6918602e-21)
(-0.025431091 0.019151707 1.0665199e-20)
(-0.027877275 0.017066316 -3.722782e-21)
(-0.0290533 0.014423797 -1.8896241e-20)
(-0.028909047 0.011424349 6.5413481e-21)
(-0.027431033 0.0082098845 1.2862636e-20)
(-0.024627662 0.0048797364 5.834116e-21)
(-0.020520013 0.0015021787 1.8159205e-20)
(-0.015135839 -0.0018769446 1.7296015e-21)
(-0.0085051916 -0.0052273517 -3.3864727e-20)
(-0.00065661606 -0.0085277379 1.2020306e-21)
(0.0083813728 -0.011759262 -2.2139337e-20)
(0.018557312 -0.014904276 -2.4466473e-20)
(0.029802724 -0.017953961 4.5820031e-20)
(0.042305617 -0.020855355 2.5349537e-20)
(0.056739351 -0.023248033 1.2240795e-22)
(-0.003129037 0.0083689971 -5.2833295e-21)
(-0.00789642 0.018336568 -8.48159e-21)
(-0.012439014 0.023587875 4.359318e-21)
(-0.016026563 0.025609724 4.1463627e-21)
(-0.018235045 0.025382802 2.0105775e-21)
(-0.018912658 0.023589364 7.3210282e-21)
(-0.0179847 0.020730298 9.3125177e-21)
(-0.015416661 0.017170381 -1.3511414e-21)
(-0.011206957 0.013171294 -1.1481998e-20)
(-0.005375093 0.008918887 -2.9072016e-20)
(0.0020483121 0.0045433659 6.1894972e-23)
(0.011026779 0.00013421143 4.0698029e-20)
(0.021522577 -0.0042490804 -1.8383262e-20)
(0.033498294 -0.0085677458 -1.2296155e-20)
(0.046921058 -0.01279574 5.534837e-22)
(0.061760755 -0.016912085 3.2302839e-20)
(0.0779538 -0.020901936 -1.4829652e-20)
(0.095393188 -0.024763682 -5.3339513e-20)
(0.11439952 -0.028380065 4.5765293e-20)
(0.13634663 -0.031073482 3.3013382e-20)
(-0.0039704205 0.0094657609 -6.8788726e-22)
(-0.0090916785 0.020487848 -1.253479e-20)
(-0.01236449 0.026159152 -3.4144699e-20)
(-0.013552547 0.0281434 -5.7241941e-21)
(-0.012533223 0.027555057 -3.622287e-21)
(-0.0093166741 0.025188095 6.3051291e-21)
(-0.0039455496 0.021627419 -4.6462113e-21)
(0.0035262794 0.01729894 -8.8070559e-21)
(0.01303704 0.012508703 2.1899798e-20)
(0.02452154 0.0074743616 5.0567231e-21)
(0.037915928 0.0023487889 -2.5290421e-20)
(0.053157938 -0.0027629352 1.1078326e-20)
(0.070187476 -0.0077910636 0)
(0.088947319 -0.012691532 1.2089637e-20)
(0.10938632 -0.01743719 -9.7016686e-21)
(0.13145845 -0.022010211 -1.4337203e-20)
(0.15507527 -0.026409007 -1.5738789e-21)
(0.18006898 -0.030659831 -2.2181778e-21)
(0.20685499 -0.034576997 4.6147304e-20)
(0.23766538 -0.037020381 -1.0470224e-20)
(-0.004645109 0.0097808892 -7.5356949e-21)
(-0.0096772673 0.02074793 2.4516511e-20)
(-0.011064384 0.026161032 -1.0499399e-20)
(-0.0090968088 0.027724492 -2.7469401e-20)
(-0.0039796549 0.026601725 -2.7548264e-20)
(0.0040963049 0.023648415 -1.4921629e-20)
(0.014954341 0.019496435 -6.9059346e-22)
(0.028436511 0.01460465 5.5499927e-21)
(0.04440352 0.0093033554 1.9615945e-20)
(0.06273098 0.0038282859 7.3531146e-21)
(0.083304924 -0.0016549253 -7.1862483e-21)
(0.10601972 -0.0070324516 -2.0102316e-21)
(0.13077447 -0.012229355 -3.8191884e-20)
(0.1574705 -0.017200057 -1.2693704e-20)
(0.18601324 -0.021920088 1.8750712e-20)
(0.2163132 -0.026380122 -2.102179e-20)
(0.24823386 -0.030602682 -8.9731054e-21)
(0.28152052 -0.034671123 3.0440607e-20)
(0.3166091 -0.038365395 5.0472321e-20)
(0.35665245 -0.039964734 3.3559868e-21)
(-0.0049617779 0.0093140208 1.6783362e-20)
(-0.0091662767 0.019097746 1.4467991e-20)
(-0.0078593464 0.023563401 5.1145698e-20)
(-0.001858475 0.024328965 2.338808e-20)
(0.0082958514 0.022523782 1.8251845e-22)
(0.022222149 0.019014354 -3.93886e-20)
(0.039597749 0.014440871 -2.431396e-20)
(0.060148324 0.0092662568 1.046585e-20)
(0.083639664 0.0038230845 1.4401639e-20)
(0.10986738 -0.0016514864 -1.311375e-20)
(0.13864648 -0.0069912426 -4.4038894e-20)
(0.16980273 -0.012083128 2.9618623e-20)
(0.20316525 -0.01685449 2.0020628e-20)
(0.23856086 -0.021264378 -2.7551277e-20)
(0.27581391 -0.025296839 1.1650193e-20)
(0.31474993 -0.02895766 2.4197726e-20)
(0.3551475 -0.032303602 8.0724383e-21)
(0.39663614 -0.035507287 -1.1764282e-20)
(0.43957951 -0.038393317 -1.4190349e-20)
(0.48798782 -0.038635141 5.8728471e-21)
(-0.0047307819 0.0081236884 1.1093887e-20)
(-0.0070585928 0.015671194 -2.3352821e-20)
(-0.0020293155 0.01856204 8.620083e-21)
(0.0090326376 0.018216212 3.35881e-20)
(0.025256567 0.015651108 5.212455e-20)
(0.046066651 0.011695527 2.0276586e-20)
(0.070984963 0.0069608376 -5.8639634e-21)
(0.099602532 0.0018827946 -1.2286321e-20)
(0.13156969 -0.0032273995 -6.2057768e-21)
(0.16657659 -0.0081499057 3.4240963e-20)
(0.20433535 -0.012733617 -4.5104683e-21)
(0.24456615 -0.016879535 -1.6643373e-20)
(0.28698622 -0.020529086 -1.9693645e-20)
(0.33130172 -0.023656867 -4.744394e-20)
(0.37720655 -0.026266043 2.3238803e-20)
(0.42438988 -0.028388429 -1.4096049e-20)
(0.47250214 -0.030128247 2.5993533e-20)
(0.5210388 -0.031783876 2.1040928e-20)
(0.57021677 -0.033351428 -8.5570718e-20)
(0.62471217 -0.032059657 -1.0805271e-22)
(-0.0037710512 0.006314646 2.192513e-20)
(-0.0028657364 0.010735091 -2.6165632e-20)
(0.0071421979 0.011564112 -4.5013463e-20)
(0.024450417 0.0099249369 -2.7253883e-20)
(0.04787115 0.0066522191 -2.043994e-21)
(0.076629138 0.0024904918 1.3050127e-20)
(0.11007732 -0.0020155623 -2.8337704e-21)
(0.14765282 -0.0064881152 1.8118596e-20)
(0.18886191 -0.010663761 8.8685859e-21)
(0.23325311 -0.014362726 -1.1380211e-20)
(0.28039286 -0.017469304 8.8779589e-21)
(0.32984763 -0.019917211 -2.3903357e-20)
(0.38117063 -0.021679155 8.0505213e-21)
(0.43389289 -0.022760387 1.6756463e-20)
(0.48752162 -0.023194869 -2.639525e-21)
(0.54154964 -0.023047517 1.6619039e-21)
(0.59543814 -0.02247013 -3.1957164e-22)
(0.64852069 -0.02187085 1.9590514e-20)
(0.7008254 -0.02144587 4.0434181e-21)
(0.75745463 -0.018499957 -5.7344288e-22)
(-0.0019110043 0.0040273456 2.3692196e-20)
(0.0038694901 0.0046764918 5.7160168e-20)
(0.020315458 0.0031879057 -4.9244399e-20)
(0.04517855 0.00029433293 -9.9454482e-21)
(0.07696556 -0.0034242833 2.0256406e-20)
(0.1146968 -0.0073537583 2.1433786e-21)
(0.15753959 -0.011055172 -2.9815256e-20)
(0.20474927 -0.014244398 6.9848272e-21)
(0.25565068 -0.016738232 7.1098198e-21)
(0.30960613 -0.018427307 -2.6254173e-20)
(0.36598811 -0.019260496 1.2927394e-21)
(0.42416145 -0.019232314 -3.7174257e-20)
(0.48347311 -0.0183727 -3.6341165e-20)
(0.54324796 -0.016738828 6.5683771e-20)
(0.60279063 -0.01440791 5.5627752e-21)
(0.66139153 -0.011476565 -1.5188883e-20)
(0.71831068 -0.008102774 1.9364055e-20)
(0.77270197 -0.0045936591 -9.1888565e-22)
(0.82409139 -0.00096890946 2.0364622e-20)
(0.87622276 0.0043271351 -1.9554294e-20)
(-0.018836123 -0.0050997574 5.8352509e-20)
(-0.010224267 -0.0056349865 1.5783786e-20)
(-0.00022069754 -0.0060689451 -3.5139838e-20)
(0.010823846 -0.0063341794 1.6790384e-20)
(0.022643221 -0.0065121213 0)
(0.035178788 -0.0066301686 0)
(0.048370728 -0.0066910562 -2.2975157e-20)
(0.062139322 -0.0067026267 -1.6503021e-20)
(0.076414158 -0.0066742651 1.9122788e-20)
(0.091135729 -0.0066127602 1.8174219e-20)
(0.10624906 -0.0065233039 1.0524329e-21)
(0.12170235 -0.0064104597 -1.0317737e-20)
(0.1374473 -0.0062781862 8.3269857e-21)
(0.15343869 -0.0061298308 1.8233904e-20)
(0.16963376 -0.0059682568 -5.227498e-21)
(0.18599186 -0.0057959495 -1.0175042e-20)
(0.20247423 -0.0056150801 -4.319633e-21)
(0.21904386 -0.0054275577 -4.425775e-21)
(0.23566532 -0.0052350743 7.3667567e-22)
(0.25230474 -0.0050391404 1.2286214e-21)
(0.26892978 -0.004841111 2.5666819e-21)
(0.28550967 -0.0046422058 6.6540445e-21)
(0.30201522 -0.0044435241 2.4892314e-22)
(0.31841889 -0.0042460555 -3.4515313e-21)
(0.33469484 -0.0040506874 1.5558441e-22)
(0.35081901 -0.0038582116 -5.7710976e-22)
(0.36676913 -0.003669328 1.2434644e-21)
(0.38252482 -0.0034846491 1.0522577e-21)
(0.39806755 -0.0033047035 -1.2988536e-21)
(0.41338071 -0.0031299393 -1.2218467e-22)
(0.42844957 -0.0029607286 3.5715367e-23)
(0.44326128 -0.0027973715 -3.5189082e-22)
(0.45780486 -0.0026401011 -4.0569211e-22)
(0.47207113 -0.0024890888 5.543921e-23)
(0.48605268 -0.00234445 -1.3810023e-22)
(0.49974383 -0.0022062502 -2.2344596e-22)
(0.51314058 -0.0020745115 2.5574036e-22)
(0.52624059 -0.0019492197 2.9504908e-22)
(0.53904307 -0.0018303332 -8.2917887e-24)
(0.55154917 -0.0017177865 -1.5522598e-22)
(0.56376087 -0.0016115188 3.0406192e-23)
(0.57568478 -0.0015114299 -4.0150824e-23)
(0.5873211 -0.0014175911 9.2246646e-23)
(0.59869891 -0.0013296661 2.196845e-23)
(0.60977253 -0.0012489398 -1.1406537e-22)
(0.62073424 -0.0011722012 -6.7715168e-24)
(0.63110591 -0.001111688 -6.7186344e-26)
(0.64239978 -0.0010344227 -3.5772942e-24)
(0.65048068 -0.0010513394 2.9449127e-23)
(0.66707259 -0.0008761679 3.6065324e-22)
(0.010446385 -0.015017777 -1.2746931e-20)
(0.018180312 -0.016641197 -6.3302824e-20)
(0.027779945 -0.017915616 -3.0542209e-20)
(0.038386004 -0.018672288 3.8476346e-20)
(0.049621987 -0.019183819 1.4662743e-20)
(0.061507784 -0.019529676 -1.8205113e-20)
(0.074014145 -0.019710122 4.6722695e-21)
(0.087064177 -0.019746761 2.5447427e-20)
(0.10059485 -0.019667562 9.197074e-23)
(0.11455593 -0.019491993 -7.6592132e-21)
(0.12889932 -0.019234663 -1.3021113e-20)
(0.14357841 -0.018908626 -8.524643e-21)
(0.1585493 -0.018525297 1.7772521e-20)
(0.17377049 -0.018094335 8.929719e-21)
(0.18920223 -0.017624023 -1.6522578e-20)
(0.20480633 -0.017121585 -6.0391255e-21)
(0.22054605 -0.01659336 3.2145291e-21)
(0.23638603 -0.016044943 8.3717091e-21)
(0.2522922 -0.015481314 6.9833253e-21)
(0.26823182 -0.014906933 -6.9728538e-21)
(0.28417347 -0.014325815 -3.1686503e-21)
(0.30008711 -0.013741586 1.3606102e-21)
(0.31594417 -0.013157521 3.8690556e-22)
(0.33171759 -0.012576575 1.2114355e-21)
(0.34738192 -0.012001405 1.8370478e-22)
(0.36291337 -0.011434383 -3.266416e-22)
(0.37828988 -0.010877614 -7.2438366e-22)
(0.39349115 -0.010332942 9.7164278e-22)
(0.40849872 -0.0098019598 8.2488709e-22)
(0.42329593 -0.0092860244 -1.5153286e-22)
(0.43786797 -0.0087862644 5.5311574e-22)
(0.45220183 -0.0083035946 -2.3881937e-22)
(0.46628633 -0.0078387297 -3.7075285e-22)
(0.48011202 -0.0073922002 -6.1005916e-22)
(0.49367119 -0.0069643694 4.4174915e-22)
(0.50695783 -0.0065554514 -1.5540443e-23)
(0.51996756 -0.0061655312 1.6131447e-22)
(0.53269762 -0.0057945841 -4.4185323e-22)
(0.5451468 -0.0054425036 3.7204046e-22)
(0.55731579 -0.0051091118 6.718973e-23)
(0.56920609 -0.0047942444 -1.0285689e-22)
(0.58082381 -0.0044976178 1.7624386e-22)
(0.59216872 -0.0042194623 2.3356571e-22)
(0.60326914 -0.0039587878 1.6941656e-22)
(0.61407959 -0.0037194443 1.6786238e-22)
(0.62478945 -0.0034918705 -2.6134575e-23)
(0.63492699 -0.003312538 8.4232897e-23)
(0.6459815 -0.0030832903 7.6481785e-23)
(0.65388287 -0.0031339566 -1.9493722e-22)
(0.67015576 -0.0026142591 -3.7993727e-23)
(0.067615594 -0.024029432 9.4529099e-21)
(0.073590678 -0.026749362 3.2951424e-21)
(0.082266635 -0.028805908 -1.2162349e-20)
(0.091949084 -0.029968866 -1.2258222e-21)
(0.10198462 -0.030768247 1.4970742e-20)
(0.1125479 -0.031331296 -1.4887259e-20)
(0.1236777 -0.031636495 -2.9842577e-20)
(0.13529874 -0.03171345 1.4493688e-20)
(0.14735907 -0.031608099 1.8182173e-20)
(0.15982576 -0.031350537 -1.1598651e-20)
(0.17266316 -0.030962319 1.019066e-21)
(0.18583362 -0.03046327 8.6860592e-21)
(0.19930091 -0.029871084 -1.5253741e-20)
(0.21302992 -0.029200788 2.9096571e-21)
(0.22698608 -0.028465325 7.5195551e-21)
(0.24113538 -0.027676085 3.1514645e-23)
(0.25544447 -0.026843155 2.6551162e-22)
(0.26988074 -0.025975509 -7.4152269e-21)
(0.28441239 -0.025081193 3.8618495e-21)
(0.29900847 -0.024167464 8.4750842e-21)
(0.31363906 -0.023240895 -3.8352602e-21)
(0.32827531 -0.022307452 -2.2130718e-21)
(0.34288961 -0.021372553 1.0124339e-21)
(0.35745563 -0.020441103 -1.7155929e-21)
(0.37194849 -0.01951753 1.3532513e-21)
(0.38634481 -0.018605805 7.1847428e-22)
(0.40062277 -0.017709457 1.5269904e-21)
(0.4147622 -0.016831591 -1.9528264e-21)
(0.42874464 -0.015974903 2.2237723e-21)
(0.44255331 -0.015141697 5.5193274e-22)
(0.45617315 -0.014333902 4.033497e-22)
(0.46959085 -0.013553092 3.2135836e-22)
(0.48279479 -0.012800511 8.7340171e-22)
(0.49577502 -0.012077099 -1.3711049e-21)
(0.50852324 -0.011383517 3.7073755e-22)
(0.52103279 -0.010720179 1.0949967e-22)
(0.53329856 -0.010087284 -4.5202948e-23)
(0.54531705 -0.0094848506 8.6699123e-23)
(0.55708622 -0.0089127575 -3.7195953e-22)
(0.5686059 -0.0083707656 1.8301829e-22)
(0.57987672 -0.0078586568 -3.4995564e-23)
(0.59090384 -0.0073760135 3.903259e-22)
(0.60168623 -0.0069232668 -1.8559231e-22)
(0.61225081 -0.0064988282 4.7350835e-23)
(0.62255242 -0.0061090931 4.3657348e-23)
(0.63277506 -0.0057383649 -7.3696795e-23)
(0.64245913 -0.0054466206 -1.210803e-22)
(0.65304995 -0.0050728719 3.8874883e-22)
(0.66060294 -0.0051569144 1.7295079e-22)
(0.6762575 -0.0043100409 -8.3073304e-22)
(0.1502167 -0.031460841 1.5010363e-21)
(0.15354841 -0.03525784 -1.1566674e-20)
(0.16061787 -0.0380114 6.6442229e-21)
(0.16880769 -0.039479607 -1.3324851e-20)
(0.17698418 -0.040521226 -1.975848e-21)
(0.18552556 -0.041302844 9.1600497e-21)
(0.19458647 -0.041757828 -9.7663641e-21)
(0.20408938 -0.041914327 1.5662491e-21)
(0.21399034 -0.041833973 1.2903927e-20)
(0.22427886 -0.041555002 3.4032656e-21)
(0.23493564 -0.041102735 -6.2097605e-21)
(0.24593355 -0.040501163 -2.8638742e-21)
(0.25724518 -0.039772485 -5.840919e-21)
(0.26884299 -0.038935814 -6.4554193e-21)
(0.2806984 -0.038007756 3.2356591e-21)
(0.29278211 -0.037003105 8.4613169e-22)
(0.30506456 -0.035935149 1.3680091e-21)
(0.31751616 -0.034815868 -3.3850863e-21)
(0.3301075 -0.033656117 -4.2430147e-21)
(0.34280957 -0.032465786 2.3617228e-21)
(0.35559395 -0.031253911 3.2252596e-21)
(0.36843297 -0.030028754 -1.5637184e-21)
(0.38129992 -0.028797866 1.5867881e-21)
(0.39416918 -0.027568123 -3.91284e-22)
(0.40701632 -0.026345763 -3.9198689e-21)
(0.41981825 -0.025136403 -3.033387e-21)
(0.43255328 -0.02394506 -1.9030663e-22)
(0.44520123 -0.022776168 4.2856214e-22)
(0.45774346 -0.021633598 -2.2107052e-21)
(0.47016288 -0.020520676 -8.5511228e-22)
(0.48244403 -0.019440211 2.2838482e-22)
(0.49457304 -0.018394516 -1.2500324e-21)
(0.50653764 -0.017385448 6.2258359e-24)
(0.51832713 -0.016414436 -4.2430008e-22)
(0.52993239 -0.015482523 -4.719704e-22)
(0.54134582 -0.014590407 -5.2013826e-22)
(0.55256131 -0.013738484 -8.4161387e-22)
(0.5635743 -0.012926893 -5.4476721e-23)
(0.57438165 -0.012155583 -3.9166461e-24)
(0.58498202 -0.011424332 -5.1994241e-22)
(0.59537484 -0.010732945 -9.1583207e-23)
(0.605564 -0.010080946 -3.3260147e-22)
(0.61554735 -0.0094690302 -4.3795715e-22)
(0.62534993 -0.0088950991 3.7874329e-22)
(0.6349271 -0.0083680474 1.48344e-23)
(0.64445518 -0.0078664159 1.8260451e-22)
(0.65349208 -0.0074724286 -1.327421e-22)
(0.66341995 -0.0069662605 -2.6734272e-22)
(0.67047498 -0.0070828782 -4.4449591e-23)
(0.68524271 -0.0059369069 4.6250122e-22)
(0.25468761 -0.036553298 -2.0900484e-20)
(0.25447226 -0.041394086 4.7586275e-20)
(0.25907551 -0.044746272 1.034816e-20)
(0.26508645 -0.046442691 -1.5765444e-20)
(0.27071181 -0.047714995 -2.0228368e-21)
(0.27652258 -0.048748489 2.6232204e-21)
(0.2828383 -0.049414463 -1.6608642e-21)
(0.28957989 -0.049728875 -4.6861847e-21)
(0.29669975 -0.049762237 -4.0159554e-21)
(0.30420885 -0.049557889 -1.2207761e-20)
(0.31210578 -0.049142552 1.7897994e-20)
(0.32037321 -0.048541696 6.5220989e-21)
(0.32899108 -0.047779887 -1.6780709e-20)
(0.33793838 -0.046878968 1.0317615e-20)
(0.34719171 -0.045858277 8.3850079e-21)
(0.35672568 -0.044735317 -8.7916416e-22)
(0.3665137 -0.043526099 -3.122203e-21)
(0.37652849 -0.042245307 -3.8198669e-21)
(0.38674237 -0.040906447 -1.3893201e-21)
(0.39712765 -0.039521969 -1.2304784e-21)
(0.40765685 -0.038103367 -3.0258944e-21)
(0.418303 -0.036661246 0)
(0.42903982 -0.035205364 -1.3452613e-21)
(0.43984192 -0.033744666 3.931063e-21)
(0.45068498 -0.032287309 5.405505e-21)
(0.46154581 -0.030840675 -9.411434e-22)
(0.47240253 -0.02941139 -2.9276804e-21)
(0.48323461 -0.028005343 3.0261314e-21)
(0.49402293 -0.026627702 2.5439623e-22)
(0.50474985 -0.025282938 3.43558e-21)
(0.51539921 -0.02397486 -5.3461649e-22)
(0.52595635 -0.022706642 1.7175103e-21)
(0.53640812 -0.021480867 -7.9976815e-22)
(0.54674284 -0.020299572 2.9104061e-22)
(0.55695033 -0.019164293 -4.341527e-22)
(0.56702184 -0.018076122 5.6240486e-22)
(0.57695007 -0.017035758 4.5722494e-22)
(0.58672919 -0.016043572 3.8267627e-22)
(0.59635474 -0.015099682 -9.5968969e-22)
(0.605824 -0.014203983 6.8382373e-22)
(0.61513504 -0.0133564 -3.697329e-22)
(0.62429024 -0.012556493 -1.1039557e-21)
(0.63328618 -0.011805297 1.4087576e-21)
(0.64214565 -0.011100318 -6.2043238e-23)
(0.65082479 -0.010452874 -1.583119e-22)
(0.65949034 -0.0098362458 -7.8341477e-24)
(0.66772247 -0.0093531884 -1.2647515e-22)
(0.67682353 -0.0087304311 -4.6650241e-22)
(0.68325835 -0.0088784085 8.7866996e-22)
(0.69691448 -0.007470286 -4.434081e-23)
(0.37635375 -0.038368834 -1.7495245e-20)
(0.37171234 -0.044270935 1.283212e-20)
(0.3728696 -0.048162359 2.9755177e-21)
(0.3759133 -0.050099634 -7.6354334e-21)
(0.37830826 -0.051670791 1.205608e-20)
(0.38072609 -0.053043229 7.7914785e-21)
(0.38367933 -0.054030932 -1.2647773e-20)
(0.38710408 -0.054634031 -6.0680319e-21)
(0.39093293 -0.054918967 1.269746e-20)
(0.39518633 -0.054928131 -1.5305192e-20)
(0.39987836 -0.054688546 -1.4063331e-20)
(0.40499941 -0.054225717 1.412987e-20)
(0.4105332 -0.053564757 6.8194613e-21)
(0.41646202 -0.052729078 -4.2039376e-21)
(0.42276526 -0.051740178 -1.8545033e-21)
(0.42941945 -0.050617944 -4.05814e-21)
(0.4363992 -0.049380929 5.3047361e-21)
(0.44367801 -0.048046487 3.668257e-21)
(0.45122865 -0.046630842 -3.2408507e-21)
(0.45902358 -0.045149144 3.1379924e-21)
(0.46703527 -0.043615523 2.7667698e-21)
(0.47523653 -0.042043129 -3.2112138e-21)
(0.48360077 -0.040444143 3.7057238e-22)
(0.49210214 -0.038829801 -3.2572205e-21)
(0.50071575 -0.037210393 7.2458841e-21)
(0.50941781 -0.035595282 6.1083789e-21)
(0.51818572 -0.033992908 8.0984214e-22)
(0.52699818 -0.032410806 -1.7684181e-21)
(0.5358352 -0.030855627 3.7025724e-21)
(0.54467822 -0.029333167 7.1892647e-21)
(0.5535101 -0.027848398 2.3051092e-21)
(0.5623151 -0.026405517 3.316905e-21)
(0.57107896 -0.025007984 1.9958545e-21)
(0.57978882 -0.023658588 7.4570833e-22)
(0.58843324 -0.022359496 -2.6376353e-22)
(0.5970022 -0.021112324 2.7208855e-21)
(0.60548704 -0.019918206 6.2006397e-22)
(0.61388056 -0.018777862 2.9494682e-22)
(0.62217686 -0.017691697 5.6245188e-23)
(0.63037179 -0.016659837 9.9007378e-22)
(0.63846193 -0.01568243 4.7032206e-23)
(0.64644807 -0.014759178 4.4273193e-22)
(0.65432551 -0.013891536 -1.2628152e-22)
(0.66211456 -0.01307674 -2.7757495e-22)
(0.66977247 -0.01232843 -1.5232348e-22)
(0.67745492 -0.011615217 -4.2253691e-22)
(0.68476833 -0.011058319 1.6169051e-22)
(0.69292171 -0.010337457 -1.2739989e-22)
(0.69864752 -0.010515219 -5.0115578e-22)
(0.71102044 -0.0088882887 2.4601122e-22)
(0.50927717 -0.035975061 3.6471326e-21)
(0.49953336 -0.042961481 -1.8958393e-20)
(0.49627865 -0.04738432 -2.3084079e-21)
(0.49555915 -0.049737664 5.4869859e-21)
(0.4941729 -0.051818968 3.0528531e-21)
(0.49269925 -0.053706374 -4.9847009e-23)
(0.49181597 -0.055188652 6.1897674e-21)
(0.49151836 -0.056266441 7.6251828e-21)
(0.4917157 -0.056991613 9.8581174e-21)
(0.49241495 -0.057396692 -1.1250165e-20)
(0.49363547 -0.057507456 -2.1579697e-20)
(0.49537243 -0.057349609 -3.9354381e-21)
(0.49760956 -0.056948359 1.5938366e-20)
(0.50032816 -0.056328274 1.2809139e-20)
(0.50350706 -0.055513034 -5.9067235e-21)
(0.50712221 -0.054525183 1.3816439e-21)
(0.51114739 -0.053386158 -3.6602104e-21)
(0.51555506 -0.05211635 2.2445544e-21)
(0.52031694 -0.050735096 -2.9123433e-22)
(0.52540436 -0.049260653 -1.8654575e-21)
(0.53078867 -0.04771019 7.8268633e-21)
(0.53644148 -0.046099783 -2.9314103e-22)
(0.54233499 -0.044444407 4.1823741e-22)
(0.54844216 -0.042757929 -6.5642631e-22)
(0.55473688 -0.041053101 -4.3031083e-21)
(0.56119414 -0.039341562 4.2086976e-21)
(0.56779008 -0.037633842 1.9031625e-21)
(0.57450215 -0.035939383 -3.3083631e-21)