/*--------------------------------*- C++ -*----------------------------------*\
  =========                 |
  \\      /  F ield         | OpenFOAM: The Open Source CFD Toolbox
   \\    /   O peration     | Website:  https://openfoam.org
    \\  /    A nd           | Version:  6
     \\/     M anipulation  |
\*---------------------------------------------------------------------------*/
FoamFile
{
    version     2.0;
    format      ascii;
    class       volScalarField;
    location    "147";
    object      pMean;
}
// * * * * * * * * * * * * * * * * * * * * * * * * * * * * * * * * * * * * * //

dimensions      [0 2 -2 0 0 0 0];

internalField   nonuniform List<scalar> 
9200
(
-0.39970293
-0.38753829
-0.37666678
-0.36706596
-0.35766916
-0.34847668
-0.33957298
-0.3309219
-0.32245127
-0.3140865
-0.30575394
-0.29738574
-0.28892689
-0.28034234
-0.27162699
-0.26282261
-0.25401209
-0.24528824
-0.23765199
-0.23528948
-0.41824081
-0.40362749
-0.39082084
-0.37968978
-0.36889684
-0.3584121
-0.34831037
-0.33852563
-0.32895545
-0.31950145
-0.31007295
-0.30059256
-0.29100361
-0.28127558
-0.27140897
-0.26143839
-0.25140343
-0.24131248
-0.23183757
-0.22511101
-0.43709318
-0.4200247
-0.4053394
-0.39275234
-0.38061699
-0.36885542
-0.35752208
-0.3465151
-0.33570174
-0.32496571
-0.31421021
-0.30336301
-0.2923826
-0.28126046
-0.2700198
-0.25871044
-0.24738093
-0.23604767
-0.22510843
-0.21567629
-0.45579839
-0.43630777
-0.41981593
-0.40583444
-0.39237185
-0.37928694
-0.36660779
-0.35419844
-0.34190613
-0.32961399
-0.31724125
-0.30474503
-0.29212238
-0.27940678
-0.26666043
-0.25396335
-0.24138939
-0.22898129
-0.21700772
-0.20621669
-0.4736979
-0.45190169
-0.43372508
-0.41842459
-0.40363855
-0.38915347
-0.37497337
-0.36094149
-0.34690769
-0.332783
-0.31853265
-0.30417058
-0.28975378
-0.27537111
-0.26112921
-0.24713811
-0.23349111
-0.22024621
-0.20759251
-0.19604646
-0.48994037
-0.46606003
-0.44637781
-0.4298451
-0.41372345
-0.39772971
-0.38185909
-0.36596211
-0.3499269
-0.33372897
-0.3174114
-0.30106768
-0.28482591
-0.26883001
-0.2532215
-0.23812511
-0.22363418
-0.20980017
-0.19674829
-0.18482285
-0.50349737
-0.47787201
-0.4569238
-0.43925641
-0.42177523
-0.40414617
-0.38638619
-0.36839562
-0.35014573
-0.33171478
-0.31324982
-0.29493499
-0.27696611
-0.25952736
-0.24277371
-0.22682104
-0.21173984
-0.19755397
-0.18432769
-0.17226644
-0.51318698
-0.48628793
-0.46438616
-0.44570649
-0.42685171
-0.40747356
-0.38765561
-0.36740099
-0.34681168
-0.32610154
-0.30553608
-0.28538706
-0.26590134
-0.24727896
-0.22966222
-0.21313485
-0.19772594
-0.18341858
-0.17021744
-0.15821024
-0.51765375
-0.49001519
-0.46745934
-0.44784115
-0.42756328
-0.40632778
-0.38434564
-0.36177893
-0.33889727
-0.31606233
-0.29364847
-0.27199024
-0.25135373
-0.2319236
-0.21380397
-0.197029
-0.18157685
-0.1673867
-0.15440795
-0.14262703
-0.51554327
-0.48762629
-0.46458257
-0.44398435
-0.42218443
-0.39901962
-0.37489228
-0.35016581
-0.32528691
-0.30074433
-0.27698132
-0.25434868
-0.23308926
-0.21334057
-0.19514971
-0.17849413
-0.16330276
-0.14947733
-0.13691933
-0.12552659
-0.27978854
-0.28410049
-0.28604441
-0.28629664
-0.28555401
-0.28398243
-0.28167934
-0.27874118
-0.27524359
-0.27124466
-0.26679213
-0.26192703
-0.25668584
-0.25110198
-0.24520703
-0.23903332
-0.23261531
-0.22597704
-0.2191204
-0.21213743
-0.2827531
-0.28662237
-0.2882457
-0.28827387
-0.28734588
-0.28561898
-0.28318845
-0.2801463
-0.27656411
-0.27249679
-0.26798941
-0.26308062
-0.25780482
-0.2521932
-0.24627456
-0.24007997
-0.23365125
-0.22701075
-0.22005069
-0.21274418
-0.28852494
-0.2915326
-0.29253343
-0.29212362
-0.29083263
-0.28880204
-0.28612285
-0.2828785
-0.27913272
-0.27493413
-0.27032239
-0.26533145
-0.25999146
-0.25432942
-0.24836892
-0.24213772
-0.23568869
-0.22904333
-0.22189885
-0.21398426
-0.29682735
-0.29860771
-0.29871082
-0.29765737
-0.29582659
-0.2933401
-0.29028376
-0.28672948
-0.2827301
-0.27832545
-0.2735475
-0.26842337
-0.26297709
-0.25722945
-0.25119684
-0.24490128
-0.23840676
-0.23173995
-0.22435293
-0.21559291
-0.30731226
-0.3075674
-0.30653297
-0.30464345
-0.30210029
-0.29900418
-0.29543643
-0.29145581
-0.2871024
-0.28240564
-0.27738819
-0.27206804
-0.26646096
-0.26058027
-0.25443384
-0.24803491
-0.24145442
-0.23473273
-0.22707008
-0.21729386
-0.31961932
-0.31812115
-0.31574828
-0.31284805
-0.30942914
-0.30557316
-0.3013591
-0.29683291
-0.29202121
-0.28694059
-0.28160184
-0.27601275
-0.27017956
-0.26410657
-0.25779227
-0.25123848
-0.24451527
-0.23768249
-0.22972137
-0.21883077
-0.33342852
-0.33000952
-0.32613548
-0.32207281
-0.31763147
-0.31287779
-0.30789242
-0.30270814
-0.29733556
-0.2917777
-0.28603285
-0.28009664
-0.27396405
-0.26762945
-0.26108219
-0.25431263
-0.24738352
-0.2403772
-0.23212081
-0.22013
-0.34849092
-0.34302913
-0.33752767
-0.33218125
-0.32659978
-0.3208377
-0.3149777
-0.30903897
-0.3030163
-0.2968973
-0.29066501
-0.28430014
-0.27778362
-0.27109759
-0.26422198
-0.25713898
-0.24990938
-0.24266155
-0.23418635
-0.22132302
-0.36462728
-0.3570229
-0.34979089
-0.3430641
-0.33624751
-0.32938275
-0.32255673
-0.31577478
-0.30901334
-0.30224175
-0.2954247
-0.2885243
-0.28150256
-0.27432189
-0.26694068
-0.25931516
-0.25147247
-0.24352428
-0.23426312
-0.22025355
-0.38171818
-0.37186022
-0.36278795
-0.3545772
-0.34641672
-0.33833531
-0.33042416
-0.32267294
-0.31503781
-0.30746893
-0.29991307
-0.29231633
-0.28462731
-0.27679727
-0.26877499
-0.26050242
-0.25192948
-0.24286154
-0.23170249
-0.21549902
-0.20423717
-0.19443617
-0.18467863
-0.17504537
-0.16547718
-0.15601416
-0.14671346
-0.13761183
-0.12873779
-0.12011884
-0.11177954
-0.10374023
-0.096017546
-0.088624935
-0.081572758
-0.074868375
-0.068516322
-0.06251849
-0.056874287
-0.05158081
-0.046633023
-0.042023951
-0.037744875
-0.033785544
-0.030134384
-0.026778716
-0.023704965
-0.020898878
-0.018345722
-0.016030483
-0.013938047
-0.012053367
-0.010361626
-0.0088483695
-0.0074996393
-0.0063020866
-0.0052430865
-0.0043108218
-0.0034944597
-0.0027840407
-0.002171397
-0.001647869
-0.0012125248
-0.00084798063
-0.00059689819
-0.00033509882
-0.00045479561
0.00013062058
-0.0018514345
0.0028631191
-0.20558228
-0.1953413
-0.18545204
-0.17582114
-0.1662186
-0.15670719
-0.1473654
-0.138226
-0.12931442
-0.12065884
-0.11228431
-0.10421102
-0.096455554
-0.089031436
-0.081949083
-0.075215889
-0.068836425
-0.062812606
-0.057143859
-0.051827282
-0.046857833
-0.04222852
-0.037930595
-0.033953773
-0.030286435
-0.026915852
-0.023828394
-0.02100975
-0.018445124
-0.016119438
-0.014017514
-0.01212424
-0.010424734
-0.0089044779
-0.0075494513
-0.0063462453
-0.0052821767
-0.0043453726
-0.0035249465
-0.0028108873
-0.0021949765
-0.0016685065
-0.0012304809
-0.00086350356
-0.00060997022
-0.00034626124
-0.00046200449
0.00012188393
-0.0018398382
0.0028336821
-0.20831261
-0.19714632
-0.18700014
-0.17741867
-0.1677646
-0.15816002
-0.14874051
-0.13952889
-0.13054276
-0.12181276
-0.11336558
-0.10522132
-0.097396673
-0.089905505
-0.082758521
-0.075963313
-0.069524616
-0.063444483
-0.057722433
-0.052355623
-0.047339029
-0.042665648
-0.038326696
-0.034311821
-0.03060932
-0.02720636
-0.024089196
-0.021243386
-0.018654
-0.016305817
-0.014183513
-0.012271831
-0.010555741
-0.0090205823
-0.0076521946
-0.0064370328
-0.005362283
-0.0044159471
-0.0035870192
-0.0028653731
-0.0022426796
-0.0017101237
-0.0012665776
-0.00089459936
-0.0006360833
-0.00036843558
-0.00047632006
0.00010473639
-0.001816852
0.0027753742
-0.21214941
-0.19952261
-0.18901031
-0.1796085
-0.16993463
-0.16021499
-0.15070474
-0.14140951
-0.13232995
-0.12350218
-0.11495728
-0.10671561
-0.098794181
-0.0912078
-0.083967946
-0.077082754
-0.070557404
-0.064394322
-0.058593312
-0.053151729
-0.04806468
-0.043325224
-0.038924582
-0.03485236
-0.03109677
-0.027644858
-0.024482729
-0.02159577
-0.018968859
-0.016586572
-0.014433375
-0.012493793
-0.01075258
-0.0091948577
-0.0078062546
-0.0065730192
-0.0054821384
-0.0045214226
-0.0036796833
-0.002946618
-0.002313728
-0.0017720336
-0.0013202088
-0.00094073625
-0.00067476918
-0.00040121693
-0.00049741431
7.9520383e-05
-0.0017827896
0.0026893956
-0.21673625
-0.20210183
-0.19112742
-0.18210947
-0.17250651
-0.16267768
-0.15308823
-0.14372524
-0.13455663
-0.12562583
-0.11697328
-0.10862094
-0.10058644
-0.092886221
-0.085533322
-0.078537014
-0.071903377
-0.065635592
-0.05973407
-0.054196629
-0.04901871
-0.044193593
-0.039712628
-0.03556546
-0.031740272
-0.028224019
-0.025002662
-0.022061405
-0.01938491
-0.016957513
-0.014763419
-0.012786885
-0.011012386
-0.0094247681
-0.0080093831
-0.0067522095
-0.0056399718
-0.0046602272
-0.0038015443
-0.0030533861
-0.0024070279
-0.0018532701
-0.0013905224
-0.0010011655
-0.00072537326
-0.0004440316
-0.00052485196
4.6763386e-05
-0.0017382477
0.0025776303
-0.22161642
-0.2045263
-0.19301606
-0.1846187
-0.1752415
-0.16534617
-0.15570642
-0.14631417
-0.13708669
-0.12806876
-0.11931528
-0.11085342
-0.10270228
-0.094880472
-0.08740354
-0.080282771
-0.073525812
-0.067137143
-0.061118252
-0.055467811
-0.050181917
-0.045254335
-0.040676743
-0.03643899
-0.032529342
-0.028934746
-0.025641072
-0.022633365
-0.019896077
-0.017413291
-0.015168925
-0.01314693
-0.01133146
-0.0097070311
-0.0082586659
-0.0069720158
-0.0058334857
-0.0048303224
-0.0039507956
-0.0031840785
-0.0025211667
-0.0019525879
-0.001476423
-0.0010749288
-0.0007870625
-0.00049615495
-0.00055809402
7.1189638e-06
-0.0016840204
0.0024425263
-0.22632461
-0.20657012
-0.19442994
-0.18681757
-0.17789394
-0.16805115
-0.15840612
-0.14902874
-0.13979113
-0.13072247
-0.12189022
-0.11333226
-0.10507175
-0.097130146
-0.089526311
-0.08227463
-0.075385218
-0.068864555
-0.06271579
-0.056938957
-0.051531223
-0.046487172
-0.041799086
-0.037457224
-0.033450105
-0.029764782
-0.026387122
-0.023302065
-0.020493879
-0.0179464
-0.015643252
-0.013568056
-0.011704611
-0.010037064
-0.0085500614
-0.0072288787
-0.0060595505
-0.0050289615
-0.0041250317
-0.0033365937
-0.0026543132
-0.0020683967
-0.0015765345
-0.0011608437
-0.00085882857
-0.00055673557
-0.0005965213
-3.8708877e-05
-0.001621033
0.0022869399
-0.23056069
-0.20859859
-0.19558381
-0.18851715
-0.18023988
-0.1706879
-0.16112487
-0.15179407
-0.14258893
-0.13351198
-0.1246299
-0.11599387
-0.1076356
-0.099580693
-0.091851853
-0.084467375
-0.077440715
-0.070781039
-0.064493718
-0.058580623
-0.053040405
-0.047868809
-0.043059
-0.038601879
-0.034486394
-0.030699853
-0.027228218
-0.0240564
-0.02116853
-0.018548225
-0.016178822
-0.014043602
-0.012125992
-0.01040974
-0.0088790823
-0.0075188786
-0.0063147503
-0.0052531762
-0.0043216811
-0.0035087119
-0.0028045589
-0.002199064
-0.0016894666
-0.0012577378
-0.00093969078
-0.00062496686
-0.00063957335
-9.0089608e-05
-0.0015503424
0.0021140807
-0.23198933
-0.21077957
-0.19710554
-0.18963569
-0.18184498
-0.17287409
-0.16358575
-0.1543764
-0.14526503
-0.13624789
-0.12737538
-0.11870699
-0.11028633
-0.10214556
-0.094311965
-0.086808468
-0.079652831
-0.072857847
-0.066431937
-0.060379555
-0.054701503
-0.049395278
-0.044455436
-0.03987395
-0.035640561
-0.03174312
-0.028167922
-0.024900029
-0.021923576
-0.019222051
-0.01677857
-0.014576111
-0.012597739
-0.0108268
-0.0092470983
-0.00784305
-0.0065998252
-0.0055034535
-0.0045410187
-0.0037005333
-0.0029718628
-0.0023444356
-0.0018149767
-0.0013652952
-0.0010292957
-0.00070041386
-0.0006870024
-0.00014622801
-0.0014734936
0.0019281542
-0.22246192
-0.21020881
-0.19844497
-0.18962093
-0.1818043
-0.17363369
-0.16496809
-0.15613514
-0.14731347
-0.13853252
-0.12982466
-0.1212504
-0.11286678
-0.10471731
-0.096837529
-0.089257883
-0.082003127
-0.075092161
-0.068538585
-0.062351231
-0.056534577
-0.051089145
-0.046011934
-0.041296853
-0.036935126
-0.032915701
-0.029225638
-0.025850481
-0.022774607
-0.019981558
-0.017454338
-0.015175696
-0.013128367
-0.011295303
-0.0096598591
-0.0082059739
-0.0069183236
-0.0057824372
-0.0047849025
-0.0039132385
-0.0031568282
-0.0025046247
-0.0019527785
-0.0014828843
-0.0011268074
-0.00078190549
-0.00073804063
-0.00020484251
-0.0013927984
0.0017349296
-0.20089547
-0.20418861
-0.19799708
-0.18845502
-0.18026492
-0.172531
-0.16433332
-0.15582101
-0.14725582
-0.13870359
-0.13018949
-0.12177012
-0.1135067
-0.10544759
-0.097632034
-0.090093872
-0.082861273
-0.075956328
-0.069395508
-0.063190216
-0.057347212
-0.051869021
-0.046754379
-0.041998679
-0.037594403
-0.033531546
-0.029798028
-0.026380082
-0.023262628
-0.020429615
-0.017864347
-0.015549771
-0.013468741
-0.011604257
-0.0099396668
-0.0084588564
-0.0071464119
-0.0059877427
-0.0049692906
-0.0040784142
-0.0033042847
-0.0026357089
-0.0020683267
-0.0015841521
-0.0012121293
-0.00085610519
-0.00078230014
-0.00026279528
-0.0013076512
0.0015430314
-0.18979625
-0.19419151
-0.18986549
-0.18063732
-0.17285611
-0.16594809
-0.158618
-0.15088192
-0.14302741
-0.13513206
-0.12721267
-0.11932226
-0.11152489
-0.10387317
-0.096410563
-0.089175379
-0.08220047
-0.075512558
-0.069132548
-0.063076037
-0.057353703
-0.051971702
-0.046932092
-0.042233289
-0.037870505
-0.033836182
-0.030120413
-0.026711354
-0.023595606
-0.020758582
-0.018184846
-0.015858417
-0.013763057
-0.011882521
-0.010200778
-0.0087022161
-0.0073718159
-0.0061952914
-0.0051592988
-0.0042513575
-0.003460659
-0.0027761607
-0.0021929538
-0.0016941538
-0.0013044984
-0.00093779057
-0.0008283625
-0.00033051599
-0.0012073904
0.0013343608
-0.18038253
-0.18237147
-0.1793139
-0.1718751
-0.16502659
-0.15888157
-0.15237823
-0.14542815
-0.13828794
-0.13105388
-0.12374537
-0.11640982
-0.10911031
-0.10190164
-0.094829815
-0.087936042
-0.081256599
-0.074821953
-0.068656826
-0.062780604
-0.057207663
-0.051947695
-0.047006102
-0.042384415
-0.038080719
-0.034090084
-0.03040498
-0.027015696
-0.023910731
-0.021077168
-0.018501029
-0.016167594
-0.014061702
-0.012168018
-0.010471272
-0.0089564757
-0.007609111
-0.0064152878
-0.0053619515
-0.0044368472
-0.0036292271
-0.0029282548
-0.0023284315
-0.001814143
-0.001405427
-0.001027284
-0.00087847449
-0.00040508805
-0.0010957383
0.0011042038
-0.17002705
-0.16965348
-0.16713126
-0.16179549
-0.15623619
-0.15090145
-0.14524696
-0.13915977
-0.13280967
-0.12629752
-0.11965782
-0.11293628
-0.1061929
-0.099483346
-0.092855843
-0.086354022
-0.080017118
-0.073879038
-0.067968181
-0.062307694
-0.056915711
-0.051805607
-0.046986323
-0.042462743
-0.03823609
-0.034304335
-0.030662605
-0.027303596
-0.024217964
-0.021394714
-0.018821556
-0.016485242
-0.014371881
-0.012467219
-0.010756898
-0.009226684
-0.007862674
-0.0066514694
-0.0055803843
-0.004637453
-0.0038120368
-0.0030935401
-0.0024758863
-0.0019447504
-0.0015153801
-0.0011241352
-0.00093344539
-0.0004831114
-0.0009804866
0.00086301568
-0.15880932
-0.15679972
-0.15440924
-0.15080707
-0.14658512
-0.14211769
-0.13731525
-0.13211896
-0.12660859
-0.12086721
-0.11494413
-0.10888747
-0.10275318
-0.09659589
-0.090465021
-0.084405846
-0.078459756
-0.072663482
-0.067048696
-0.061642062
-0.056465365
-0.051535668
-0.046865553
-0.042463426
-0.038333868
-0.034478003
-0.030893889
-0.027576904
-0.024520144
-0.021714803
-0.019150533
-0.016815799
-0.014698195
-0.012784748
-0.011062186
-0.0095171829
-0.0081365867
-0.0069076026
-0.0058180087
-0.004856204
-0.0040117216
-0.0032742402
-0.002637153
-0.0020873706
-0.0016354863
-0.0012288128
-0.00099431724
-0.00056334789
-0.00086745962
0.00061898397
-0.14646205
-0.14385615
-0.14168575
-0.13938054
-0.13636497
-0.13278801
-0.12882348
-0.12449485
-0.11982456
-0.11486873
-0.10968315
-0.1043178
-0.098824426
-0.093255241
-0.087659507
-0.082083004
-0.07656814
-0.071153442
-0.065873053
-0.06075655
-0.055828922
-0.051110626
-0.04661772
-0.042362082
-0.038351687
-0.034590918
-0.031080916
-0.027819937
-0.024803727
-0.022025891
-0.019478255
-0.017151213
-0.015034061
-0.013115302
-0.011382934
-0.0098247068
-0.0084283622
-0.0071818385
-0.0060734876
-0.0050921626
-0.0042276472
-0.0034699338
-0.0028119664
-0.0022417941
-0.0017656715
-0.0013410351
-0.0010615948
-0.00064474168
-0.00076239796
0.00038063523
-0.1333159
-0.13097165
-0.12923566
-0.12787196
-0.12585299
-0.12313252
-0.11997423
-0.11646407
-0.11260161
-0.10841762
-0.10396589
-0.099297201
-0.094458245
-0.089496707
-0.084460393
-0.079394604
-0.074341658
-0.06934071
-0.064427343
-0.059633202
-0.054985807
-0.050508475
-0.046220353
-0.042136529
-0.038268221
-0.034623018
-0.031205161
-0.028015862
-0.02505364
-0.022314665
-0.019793107
-0.017481478
-0.015370958
-0.013451712
-0.011713181
-0.010144355
-0.0087340207
-0.0074709833
-0.0063442881
-0.0053433409
-0.0044582676
-0.0036794211
-0.0029994045
-0.002407278
-0.0019054304
-0.0014602388
-0.0011355844
-0.00072631146
-0.00067111737
0.00015704938
-0.12006863
-0.11838773
-0.11720643
-0.11653278
-0.11530253
-0.11335814
-0.11095171
-0.10819572
-0.10508686
-0.10163889
-0.097897219
-0.09391003
-0.089720357
-0.085370447
-0.080903939
-0.076364443
-0.071793351
-0.067229398
-0.062708498
-0.058263376
-0.05392324
-0.049713564
-0.04565601
-0.041768436
-0.038064979
-0.034556214
-0.031249362
-0.028148544
-0.025255066
-0.022567734
-0.020083163
-0.01779611
-0.015699788
-0.013786176
-0.012046318
-0.010470593
-0.009048979
-0.0077712832
-0.0066273671
-0.0056072948
-0.0047016354
-0.0039011561
-0.0031982499
-0.0025828484
-0.0020540628
-0.0015857979
-0.001216465
-0.00080742521
-0.00059878332
-4.3170507e-05
-0.10723869
-0.10627833
-0.10566287
-0.10551799
-0.10490851
-0.10363764
-0.10190947
-0.099834882
-0.097413609
-0.094650128
-0.091579746
-0.088244807
-0.084683695
-0.080934007
-0.077034724
-0.073025557
-0.06894573
-0.06483273
-0.06072185
-0.056645904
-0.052634867
-0.048715571
-0.044911502
-0.041242705
-0.037725774
-0.034373915
-0.031197066
-0.028202088
-0.025392984
-0.022771159
-0.0203357
-0.018083669
-0.016010404
-0.014109811
-0.012374657
-0.010796846
-0.0093676778
-0.0080780874
-0.0069188735
-0.0058808658
-0.0049551829
-0.0041330684
-0.0034068499
-0.0027671995
-0.0022106018
-0.0017169973
-0.0013042136
-0.00088787701
-0.00054919257
-0.00021301583
-0.095094365
-0.094758986
-0.094650545
-0.094925092
-0.094807582
-0.094103871
-0.092968985
-0.091498337
-0.089693352
-0.08755364
-0.085105115
-0.082382686
-0.079419217
-0.076247096
-0.072900632
-0.069415332
-0.065826784
-0.062170084
-0.058479073
-0.05478579
-0.051120098
-0.047509351
-0.043978112
-0.040547963
-0.037237393
-0.034061775
-0.031033402
-0.028161597
-0.025452861
-0.022911078
-0.020537741
-0.018332207
-0.016291967
-0.014412915
-0.01268963
-0.011115637
-0.0096836646
-0.0083858896
-0.0072141584
-0.0061601699
-0.0052156978
-0.0043725321
-0.0036230849
-0.0029586639
-0.0023737893
-0.0018530082
-0.0013985524
-0.00096782813
-0.00052424478
-0.00034803324
-0.083765407
-0.083917141
-0.084222095
-0.084826732
-0.085097473
-0.084859535
-0.084228958
-0.083282205
-0.082019731
-0.080437943
-0.07855477
-0.076397378
-0.073992567
-0.071367263
-0.068550565
-0.065573476
-0.062467673
-0.059264863
-0.055996456
-0.052692918
-0.049383213
-0.046094425
-0.042851441
-0.03967669
-0.036589948
-0.033608225
-0.030745726
-0.028013871
-0.025421383
-0.022974413
-0.020676723
-0.018529882
-0.016533499
-0.014685465
-0.012982206
-0.01141893
-0.0099898789
-0.0086885563
-0.0075079534
-0.0064407324
-0.0054794238
-0.0046164374
-0.0038444191
-0.0031552436
-0.0025420968
-0.0019928772
-0.0014989199
-0.0010476695
-0.00052366384
-0.00044699678
-0.073305653
-0.073811766
-0.074428872
-0.075281895
-0.075851716
-0.075986144
-0.07577221
-0.075268959
-0.074474315
-0.073381947
-0.072003098
-0.070357646
-0.068466211
-0.066350167
-0.064033263
-0.061541543
-0.058902415
-0.056143886
-0.053294189
-0.050381394
-0.047432833
-0.044474596
-0.041531173
-0.038625153
-0.035776964
-0.033004686
-0.030323936
-0.027747812
-0.025286903
-0.022949358
-0.020740993
-0.018665443
-0.01672434
-0.014917526
-0.013243264
-0.011698468
-0.010278937
-0.0089795659
-0.0077945668
-0.0067176463
-0.0057421834
-0.0048612834
-0.0040679682
-0.0033546514
-0.0027137512
-0.0021355035
-0.0016044493
-0.0011278324
-0.00054504571
-0.0005121073
-0.063722475
-0.064472249
-0.065309037
-0.066335974
-0.067126208
-0.06754865
-0.067668615
-0.067530718
-0.067130084
-0.066457944
-0.065519973
-0.064329567
-0.062901468
-0.061251632
-0.059398522
-0.057363127
-0.055168241
-0.052837835
-0.050396622
-0.047869674
-0.045281995
-0.042658014
-0.040021161
-0.03739352
-0.034795539
-0.032245782
-0.029760741
-0.027354724
-0.025039789
-0.02282574
-0.020720183
-0.018728606
-0.01685452
-0.015099611
-0.013463927
-0.011946069
-0.010543399
-0.0092522436
-0.0080680848
-0.0069857392
-0.0059995139
-0.0051032838
-0.0042905784
-0.0035543602
-0.0028867624
-0.0022796118
-0.0017139621
-0.001208591
-0.0005842585
-0.00054859731
-0.054997433
-0.05590371
-0.056882669
-0.058018787
-0.058960968
-0.059596893
-0.059975321
-0.060129378
-0.060051871
-0.059732093
-0.05917119
-0.058377042
-0.05735912
-0.056128342
-0.054698156
-0.053084625
-0.05130588
-0.049381623
-0.047332755
-0.045181009
-0.042948546
-0.040657546
-0.038329771
-0.035986192
-0.033646666
-0.03132965
-0.02905197
-0.026828639
-0.024672737
-0.022595344
-0.020605529
-0.018710376
-0.016915065
-0.015222979
-0.013635845
-0.01215389
-0.010776017
-0.0094999812
-0.0083225654
-0.0072397414
-0.0062468088
-0.005338481
-0.0045089139
-0.0037516594
-0.0030589588
-0.0024237336
-0.0018259864
-0.0012899103
-0.00063613629
-0.0005637602
-0.047096577
-0.048092451
-0.049151836
-0.05034387
-0.051380411
-0.05216578
-0.052736065
-0.053115444
-0.053295151
-0.0532632
-0.053017242
-0.05256067
-0.051898469
-0.051037116
-0.049985507
-0.048755108
-0.047359561
-0.045814304
-0.044136286
-0.042343664
-0.040455447
-0.038491116
-0.036470259
-0.034412193
-0.032335622
-0.030258338
-0.028196951
-0.026166666
-0.024181116
-0.022252232
-0.02039018
-0.018603327
-0.01689827
-0.015279887
-0.013751433
-0.012314656
-0.010969935
-0.0097164254
-0.0085522092
-0.0074744372
-0.0064794488
-0.0055628566
-0.0047195453
-0.0039437188
-0.0032280289
-0.0025662079
-0.00193881
-0.0013713744
-0.00069532128
-0.00056559443
-0.03997578
-0.04101117
-0.042103732
-0.043310032
-0.044394396
-0.045275912
-0.045981074
-0.046527234
-0.046904805
-0.047101215
-0.047111622
-0.046935954
-0.04657559
-0.046033291
-0.045314021
-0.044425144
-0.043376168
-0.042178478
-0.040845135
-0.03939065
-0.037830699
-0.036181799
-0.034460984
-0.032685472
-0.030872335
-0.029038189
-0.027198912
-0.025369399
-0.02356335
-0.021793107
-0.020069528
-0.018401914
-0.016797975
-0.015263839
-0.013804092
-0.012421854
-0.011118873
-0.0098956398
-0.0087515043
-0.0076847948
-0.0066929169
-0.0057724299
-0.004919032
-0.0041276507
-0.0033915702
-0.0027052065
-0.0020505634
-0.0014522049
-0.00075705281
-0.00056139363
-0.033585211
-0.034623839
-0.035714773
-0.036904274
-0.038000337
-0.038935099
-0.039727898
-0.040390994
-0.040914625
-0.041286258
-0.041499463
-0.041551674
-0.04144154
-0.041168891
-0.040735466
-0.040145141
-0.039403788
-0.03851911
-0.037500523
-0.036358999
-0.035106868
-0.03375756
-0.032325335
-0.030824996
-0.029271599
-0.027680156
-0.026065359
-0.024441319
-0.02282134
-0.021217722
-0.019641599
-0.018102825
-0.016609889
-0.015169876
-0.013788464
-0.012469953
-0.011217314
-0.010032267
-0.0089153665
-0.0078660863
-0.0068829011
-0.0059633455
-0.0051039956
-0.0043005713
-0.0035471419
-0.0028387819
-0.0021593187
-0.0015313482
-0.00081770566
-0.00055665331
-0.027872705
-0.028889371
-0.029954156
-0.031104854
-0.032185753
-0.033140426
-0.033982933
-0.034721813
-0.035347631
-0.035848396
-0.036216854
-0.036448802
-0.036540975
-0.036491044
-0.03629825
-0.035963655
-0.035490083
-0.034882045
-0.034145687
-0.033288709
-0.03232024
-0.031250652
-0.030091358
-0.028854574
-0.027553082
-0.026199964
-0.024808348
-0.023391155
-0.021960866
-0.020529311
-0.019107488
-0.017705408
-0.016331981
-0.01499493
-0.013700749
-0.012454683
-0.011260741
-0.010121729
-0.0090393039
-0.008014024
-0.0070454055
-0.0061319648
-0.0052711942
-0.0044596624
-0.0036923197
-0.0029649288
-0.002263184
-0.0016075942
-0.00087496091
-0.00055456648
-0.022786041
-0.023764265
-0.024786661
-0.025884032
-0.02693081
-0.027880499
-0.028743292
-0.02952505
-0.030217015
-0.030808094
-0.031290815
-0.031660045
-0.031911318
-0.032040846
-0.03204607
-0.031925907
-0.031680758
-0.031312496
-0.03082447
-0.030221488
-0.029509751
-0.028696747
-0.027791107
-0.026802431
-0.025741099
-0.024618058
-0.023444599
-0.022232125
-0.020991933
-0.019735004
-0.018471807
-0.01721213
-0.01596494
-0.014738262
-0.013539103
-0.012373391
-0.011245949
-0.010160493
-0.0091196418
-0.0081249442
-0.0071768996
-0.0062749835
-0.0054176152
-0.0046022471
-0.0038247611
-0.0030816575
-0.0023603757
-0.00167969
-0.00092762494
-0.00055616758
-0.018274783
-0.019204795
-0.020175065
-0.021210575
-0.022210793
-0.023137794
-0.023998926
-0.024798142
-0.025527567
-0.026177231
-0.026739881
-0.027210005
-0.027582516
-0.027852767
-0.028017013
-0.028072653
-0.028018273
-0.027853677
-0.027579937
-0.027199415
-0.026715762
-0.026133861
-0.02545975
-0.02470051
-0.023864123
-0.022959318
-0.021995385
-0.020981988
-0.019928961
-0.018846119
-0.017743063
-0.016629009
-0.01551263
-0.014401922
-0.01330409
-0.012225463
-0.011171433
-0.010146414
-0.0091538207
-0.0081960601
-0.0072745263
-0.0063896006
-0.0055406096
-0.0047258974
-0.0039422929
-0.0031870786
-0.0024492706
-0.001746426
-0.00097523919
-0.00056095185
-0.014291369
-0.015168462
-0.016081872
-0.017051676
-0.017998155
-0.01889073
-0.019734642
-0.020532479
-0.021277343
-0.021960492
-0.022575176
-0.023115909
-0.023577422
-0.023954683
-0.024243279
-0.024439634
-0.02454107
-0.024545867
-0.024453337
-0.024263878
-0.023979012
-0.023601378
-0.023134705
-0.022583751
-0.021954224
-0.021252665
-0.020486321
-0.019662995
-0.018790879
-0.017878387
-0.016933982
-0.015966011
-0.014982543
-0.013991227
-0.012999165
-0.012012802
-0.011037837
-0.010079153
-0.0091407664
-0.0082257852
-0.007336378
-0.0064737485
-0.0056380802
-0.0048285873
-0.0040430319
-0.0032795074
-0.0025284518
-0.0018067006
-0.0010176761
-0.00056765719
-0.01079251
-0.011615644
-0.012471154
-0.013374928
-0.01426456
-0.015115741
-0.015932128
-0.016715316
-0.017459392
-0.018156849
-0.018801611
-0.019388477
-0.019912309
-0.020368044
-0.020751003
-0.021057077
-0.021282795
-0.021425399
-0.02148292
-0.021454262
-0.021339257
-0.021138694
-0.020854334
-0.020488895
-0.020046012
-0.019530177
-0.018946651
-0.018301362
-0.017600779
-0.016851776
-0.01606149
-0.015237164
-0.014386009
-0.013515056
-0.012631026
-0.011740206
-0.010848345
-0.0099605596
-0.0090812581
-0.0082140723
-0.0073618006
-0.0065263589
-0.0057087079
-0.0049088823
-0.004125539
-0.0033575876
-0.0025967667
-0.0018595774
-0.0010548705
-0.00057491733
-0.0077393
-0.0085101774
-0.0093095432
-0.010149683
-0.010982591
-0.01178928
-0.012572191
-0.013332179
-0.014064256
-0.014762098
-0.015420368
-0.016034304
-0.016599097
-0.017109894
-0.017562039
-0.017951229
-0.018273578
-0.018525692
-0.018704744
-0.01880857
-0.018835727
-0.018785558
-0.018658221
-0.018454714
-0.018176871
-0.017827344
-0.017409557
-0.016927643
-0.016386363
-0.015791006
-0.015147276
-0.014461172
-0.013738856
-0.012986526
-0.012210289
-0.011416034
-0.010609322
-0.009795275
-0.0089784827
-0.0081629136
-0.0073518358
-0.0065477455
-0.0057522773
-0.0049662105
-0.0041890358
-0.0034204601
-0.002653426
-0.0019043626
-0.0010867376
-0.00058164253
-0.005098333
-0.0058203123
-0.0065670634
-0.0073477166
-0.0081262315
-0.0088881177
-0.0096348649
-0.010366756
-0.011079637
-0.011768261
-0.012428029
-0.013054689
-0.013643862
-0.014191052
-0.014691818
-0.015141901
-0.01553728
-0.015874238
-0.016149439
-0.016360007
-0.016503604
-0.016578491
-0.016583585
-0.016518497
-0.016383563
-0.016179853
-0.015909162
-0.015573984
-0.015177469
-0.014723361
-0.014215919
-0.013659827
-0.01306009
-0.012421927
-0.011750655
-0.011051573
-0.01032985
-0.0095904089
-0.0088378247
-0.008076219
-0.0073091641
-0.0065395934
-0.0057696954
-0.0050008975
-0.0042334449
-0.0034677982
-0.0026980175
-0.0019406157
-0.0011131657
-0.00058710987
-0.0028437022
-0.0035218017
-0.0042211445
-0.0049481872
-0.0056767579
-0.0063961119
-0.0071069777
-0.0078091819
-0.0084992931
-0.0091730107
-0.0098264226
-0.010455789
-0.011057203
-0.011626587
-0.012159824
-0.012652849
-0.013101699
-0.013502564
-0.013851858
-0.014146287
-0.014382928
-0.014559288
-0.014673366
-0.014723714
-0.014709474
-0.014630417
-0.014486958
-0.014280163
-0.014011736
-0.01368399
-0.013299806
-0.012862571
-0.012376108
-0.011844586
-0.011272432
-0.010664223
-0.010024586
-0.0093580838
-0.0086691089
-0.0079617716
-0.0072397923
-0.0065063982
-0.0057642032
-0.0050151731
-0.0042602107
-0.0035004632
-0.002731017
-0.0019685426
-0.0011343543
-0.00059107674
-0.00094967427
-0.0015890668
-0.0022465834
-0.0029262895
-0.0036100934
-0.0042903648
-0.0049672223
-0.0056401159
-0.0063062143
-0.0069620218
-0.0076042331
-0.0082295859
-0.0088346268
-0.0094157079
-0.0099690768
-0.010490941
-0.010977506
-0.011425019
-0.011829826
-0.012188434
-0.01249757
-0.012754251
-0.012955841
-0.013100115
-0.013185308
-0.013210169
-0.013173994
-0.013076655
-0.012918616
-0.01270093
-0.012425228
-0.012093689
-0.011708994
-0.011274269
-0.010793016
-0.010269024
-0.0097062867
-0.0091088926
-0.0084809248
-0.0078263479
-0.0071488942
-0.0064519515
-0.005738433
-0.0050107268
-0.004270287
-0.0035188614
-0.0027524585
-0.0019879223
-0.0011500047
-0.00059315419
0.00057992719
-2.7868822e-05
-0.000650899
-0.001291478
-0.0019379073
-0.0025849921
-0.0032323564
-0.0038791513
-0.0045230269
-0.0051611398
-0.0057906883
-0.0064088202
-0.007012484
-0.0075984253
-0.008163244
-0.0087034374
-0.0092154299
-0.0096956067
-0.010140358
-0.010546132
-0.010909487
-0.011227149
-0.011496072
-0.011713498
-0.011877014
-0.011984607
-0.012034716
-0.012026275
-0.011958742
-0.011832129
-0.011647005
-0.011404497
-0.011106271
-0.0107545
-0.010351814
-0.0099012371
-0.0094061159
-0.0088700275
-0.0082966833
-0.0076898212
-0.0070530909
-0.006389937
-0.0057034633
-0.0049963697
-0.0042705497
-0.0035282505
-0.0027662797
-0.0020016252
-0.0011621297
-0.00059439557
0.0017887352
0.0012069865
0.00061222552
3.7457395e-06
-0.0006117247
-0.001230929
-0.0018531127
-0.0024771801
-0.0031011464
-0.003722676
-0.0043393673
-0.0049487001
-0.0055479547
-0.0061342092
-0.0067043722
-0.0072552096
-0.0077833662
-0.0082853922
-0.0087577783
-0.0091969965