/*--------------------------------*- C++ -*----------------------------------*\
  =========                 |
  \\      /  F ield         | OpenFOAM: The Open Source CFD Toolbox
   \\    /   O peration     | Website:  https://openfoam.org
    \\  /    A nd           | Version:  6
     \\/     M anipulation  |
\*---------------------------------------------------------------------------*/
FoamFile
{
    version     2.0;
    format      ascii;
    class       volVectorField;
    location    "147";
    object      U;
}
// * * * * * * * * * * * * * * * * * * * * * * * * * * * * * * * * * * * * * //

dimensions      [0 1 -1 0 0 0 0];

internalField   nonuniform List<vector> 
9200
(
(0.001039366 0.0014199716 -5.9201989e-20)
(0.013676153 -0.0020584125 4.6042674e-20)
(0.038313353 -0.0058666481 -3.8501839e-20)
(0.072274753 -0.0097636199 -6.0257913e-20)
(0.11376521 -0.013490179 1.8827019e-20)
(0.16158152 -0.016605844 3.2743969e-20)
(0.2146723 -0.018817507 -1.2268047e-20)
(0.2720671 -0.019974149 9.2688916e-21)
(0.33285745 -0.020011518 1.6803467e-20)
(0.3961649 -0.018929384 1.4848114e-21)
(0.46111719 -0.016780187 -2.1456402e-20)
(0.52683869 -0.013658143 2.067007e-20)
(0.59245269 -0.0096884518 -4.0422268e-20)
(0.65709347 -0.0050162751 -2.1133977e-20)
(0.71992701 0.00020501439 5.9046724e-21)
(0.78017742 0.0058234956 -2.5131777e-20)
(0.83717307 0.011712156 2.5217229e-20)
(0.89047127 0.017917794 2.2243345e-20)
(0.93967323 0.024572627 -2.9926738e-22)
(0.98205436 0.028292534 -1.6691501e-21)
(0.0052522139 -0.0013462911 -1.7059397e-20)
(0.026962629 -0.0089890908 3.9747824e-20)
(0.061670372 -0.014809869 2.3576361e-20)
(0.1062953 -0.01917241 -1.1569787e-19)
(0.15873624 -0.022214173 -1.2727125e-20)
(0.2175343 -0.023720895 7.3297252e-20)
(0.28137395 -0.023595338 -3.5476492e-20)
(0.34900721 -0.021869239 -8.3905778e-21)
(0.41924062 -0.01864583 3.4287634e-20)
(0.49091106 -0.01408118 -4.3259707e-20)
(0.56287413 -0.0083763254 -3.0338582e-20)
(0.63401045 -0.0017670069 7.19217e-20)
(0.70324543 0.0054879405 3.8294188e-20)
(0.76957806 0.013118132 -6.797684e-20)
(0.83211479 0.020851531 1.4623762e-20)
(0.89010275 0.028419097 -3.6733575e-20)
(0.94297156 0.035569004 -1.3777245e-20)
(0.99043467 0.04214015 7.097519e-20)
(1.0323584 0.047714503 2.9642233e-20)
(1.066937 0.049138822 -8.3478602e-20)
(0.010858477 -0.0040424405 3.6773546e-20)
(0.043953589 -0.015431156 2.5047434e-21)
(0.090515771 -0.022552405 2.2341781e-20)
(0.14711191 -0.026497518 9.8117054e-22)
(0.21134327 -0.02788649 -4.0774064e-20)
(0.28146861 -0.026795337 1.8576439e-20)
(0.35587156 -0.023382979 1.3420341e-20)
(0.43299145 -0.017921815 -5.032784e-20)
(0.51132636 -0.010735956 5.7262024e-20)
(0.58942791 -0.0021842166 1.4256741e-20)
(0.6659111 0.0073475354 -5.4300908e-20)
(0.73948244 0.017459855 -1.8237486e-20)
(0.80897817 0.02775611 9.0591514e-21)
(0.8734049 0.037858768 2.3444847e-20)
(0.93197591 0.047423484 -1.1362571e-20)
(0.98413595 0.05614835 2.7877865e-20)
(1.0295762 0.063788484 -2.0188331e-20)
(1.0682667 0.070203631 -7.0123984e-20)
(1.1003342 0.075118544 -2.3796429e-20)
(1.1249132 0.076640338 4.8660015e-20)
(0.017957284 -0.006422193 2.4508072e-20)
(0.064777226 -0.020694889 5.1039346e-20)
(0.12485271 -0.028060981 1.9881739e-20)
(0.19447029 -0.030464233 1.299011e-20)
(0.27095017 -0.029095037 1.7275733e-20)
(0.35224988 -0.024389198 -4.7720285e-20)
(0.4364327 -0.016826214 -2.5646922e-20)
(0.52162161 -0.0069769346 0)
(0.60603068 0.004566743 1.3920681e-20)
(0.68798896 0.017211413 -5.8523832e-21)
(0.76597721 0.030373569 -9.7935306e-20)
(0.83867659 0.043499238 -1.5774859e-20)
(0.90501744 0.056086174 6.5103506e-20)
(0.9642179 0.067703637 4.8439206e-22)
(1.0158057 0.078007155 -1.5725644e-21)
(1.0596176 0.086746165 2.1957606e-20)
(1.0957793 0.093771529 -5.2647558e-21)
(1.1246819 0.099064561 -6.1030048e-20)
(1.1468665 0.10259623 -4.5851494e-20)
(1.1622974 0.10341294 6.9520803e-20)
(0.026579512 -0.0082057206 -3.919428e-21)
(0.08934431 -0.0240336 -5.1256498e-21)
(0.16430805 -0.030265122 5.659953e-20)
(0.24758195 -0.029810181 1.8539355e-20)
(0.3362426 -0.02451321 -3.1955131e-20)
(0.42795249 -0.015240059 1.2163871e-20)
(0.52047407 -0.002851579 2.6402936e-21)
(0.61166523 0.01173686 3.3609281e-20)
(0.69954895 0.027639884 5.6599702e-21)
(0.78237034 0.044028481 -1.3204806e-20)
(0.85865611 0.060147399 6.0154325e-20)
(0.92727121 0.075340099 -5.8009577e-20)
(0.98745887 0.089072435 -1.3216672e-19)
(1.0388552 0.10094853 -5.5773297e-21)
(1.0814745 0.11071653 8.3151186e-20)
(1.1156675 0.11826342 0)
(1.1420567 0.12360513 1.0119003e-20)
(1.1614686 0.12688978 -1.5459849e-20)
(1.1748195 0.12829786 -8.5995057e-21)
(1.1826688 0.12744825 2.0992321e-20)
(0.036667024 -0.0090896123 -5.4309186e-21)
(0.11731546 -0.024685447 4.357883e-21)
(0.20811929 -0.028140301 -8.7630006e-21)
(0.30515789 -0.023415096 2.8472456e-20)
(0.40533651 -0.013075746 -2.9392732e-20)
(0.50607283 0.0015224505 -1.6927068e-20)
(0.60490647 0.019094964 3.7364318e-20)
(0.69955134 0.038365061 4.7595515e-21)
(0.78800581 0.058167428 -2.4436177e-20)
(0.86863604 0.077482753 6.9867828e-20)
(0.94024176 0.095458348 5.2390882e-22)
(1.0020976 0.11143122 -8.0444693e-20)
(1.0539589 0.1249425 0)
(1.0960292 0.13573702 3.9542318e-20)
(1.128894 0.14374788 5.5236303e-21)
(1.1534296 0.14906831 -7.7566769e-20)
(1.1707007 0.15191844 -1.9587014e-20)
(1.1818639 0.15262291 -1.2467691e-20)
(1.1880606 0.15152523 -1.4709459e-20)
(1.1901474 0.14858404 4.0420706e-20)
(0.048059008 -0.0087674348 -1.7277984e-20)
(0.14808352 -0.021932071 -2.2198433e-21)
(0.25514139 -0.020797934 3.0380555e-20)
(0.36546481 -0.010412902 3.7484372e-20)
(0.47590543 0.0059014757 -1.9944777e-20)
(0.58374412 0.02626919 -6.9163224e-20)
(0.6864435 0.048977083 -2.7995897e-20)
(0.78176384 0.072417645 7.8929475e-20)
(0.86790386 0.095212306 8.5778687e-21)
(0.94359112 0.1162494 -2.4873564e-20)
(1.0081278 0.13469801 1.364224e-20)
(1.061389 0.15001523 -4.3194786e-21)
(1.1037712 0.1619362 0)
(1.1360993 0.17044381 2.7203601e-20)
(1.1595063 0.17572255 -7.9322764e-20)
(1.1753036 0.17810308 -3.1475668e-20)
(1.1848585 0.17800745 8.1054936e-20)
(1.1894935 0.17590871 -4.2970117e-21)
(1.1904042 0.17225478 3.5561204e-21)
(1.1885092 0.16719213 2.7111702e-20)
(0.060485415 -0.0069573872 -3.2414658e-20)
(0.1807782 -0.015170438 -8.1624469e-20)
(0.30389007 -0.0075835926 2.5797533e-21)
(0.42642662 0.0097032932 7.0161966e-20)
(0.5453528 0.032631495 6.2424526e-20)
(0.65798254 0.058819984 -7.1574682e-20)
(0.76191053 0.086176439 -2.8272168e-22)
(0.85518473 0.11285222 8.5522868e-20)
(0.93645534 0.13737825 4.8828244e-20)
(1.0050434 0.15869353 -5.4218629e-20)
(1.0609375 0.1761354 -9.2334588e-20)
(1.1047261 0.18941324 -3.1589956e-21)
(1.1374776 0.19855906 4.212804e-20)
(1.160589 0.20385812 -6.6056563e-21)
(1.1756263 0.20576967 -1.2868838e-20)
(1.1841791 0.2048486 1.9690883e-20)
(1.1877441 0.20167832 4.3880801e-20)
(1.1876466 0.19682517 -4.385961e-20)
(1.1849966 0.19077808 -1.0232246e-19)
(1.1806261 0.18377299 2.4567003e-20)
(0.073537403 -0.0034329869 -3.497982e-20)
(0.2142274 -0.0039890541 -1.7388635e-19)
(0.35251742 0.011839354 8.2103447e-20)
(0.48562911 0.03701833 9.2767732e-20)
(0.61085517 0.066835556 5.7970699e-20)
(0.72576883 0.098481183 8.6107356e-21)
(0.82834973 0.12959695 -1.062404e-19)
(0.91719177 0.15824265 0)
(0.99162927 0.18302806 -6.874887e-20)
(1.0517539 0.20311193 -1.5202478e-20)
(1.0983401 0.2181484 5.4703677e-20)
(1.1327025 0.22821055 1.0973425e-20)
(1.1565126 0.23369225 -4.5614032e-20)
(1.1716083 0.23519904 -4.9081549e-20)
(1.1798218 0.23344286 2.4287781e-20)
(1.1828464 0.22915267 4.4823077e-20)
(1.1821501 0.22300924 -5.5600636e-20)
(1.1789372 0.21560756 -1.0751165e-19)
(1.174148 0.20742153 -3.1513617e-21)
(1.1684578 0.19871806 2.7046509e-20)
(0.086650654 0.0019613857 -3.5449234e-21)
(0.24696076 0.011816642 8.791341e-20)
(0.39884829 0.037492341 -1.647916e-20)
(0.54040583 0.071218438 -8.43094e-20)
(0.66950043 0.107789 4.5164495e-20)
(0.7842211 0.14411551 4.9175548e-20)
(0.88319109 0.17775674 5.5356965e-21)
(0.96578045 0.20688492 -9.9502812e-20)
(1.032178 0.23038799 -2.5048869e-21)
(1.0833345 0.24781543 5.0503733e-20)
(1.1208086 0.25926284 5.9854989e-21)
(1.1465574 0.26523595 -1.9717282e-20)
(1.1627122 0.26650501 -7.5704909e-20)
(1.1713779 0.26396582 -6.2554198e-21)
(1.1744775 0.25852383 4.3533512e-20)
(1.173656 0.25101037 3.7022146e-20)
(1.1702395 0.24213338 1.9793503e-20)
(1.1652413 0.23245814 -5.2995077e-20)
(1.1594025 0.22240353 1.2957458e-20)
(1.1532262 0.21223731 8.2659399e-20)
(-0.0012932656 0.0014346658 -1.1234197e-21)
(-0.0047459747 0.0031874259 2.0647017e-21)
(-0.01077139 0.0041359172 8.7960224e-22)
(-0.017754336 0.0045395495 -2.4411437e-21)
(-0.024740384 0.0045654292 -1.4114911e-21)
(-0.031299673 0.0043260494 1.5459515e-21)
(-0.037161418 0.0039035466 -6.8701322e-21)
(-0.04214754 0.0033577274 -5.9572742e-21)
(-0.046157877 0.0027313839 1.1172048e-20)
(-0.04914629 0.00205483 -9.7427951e-21)
(-0.051100748 0.0013492964 -1.9831827e-22)
(-0.052030527 0.00062941434 3.6673749e-21)
(-0.051957805 -9.490082e-05 -6.3295447e-22)
(-0.050911929 -0.00081694568 2.2818868e-20)
(-0.0489258 -0.0015318642 3.0400715e-22)
(-0.046035333 -0.0022351979 -4.0883113e-20)
(-0.042281753 -0.0029222965 7.538614e-21)
(-0.037703356 -0.003591072 2.3864257e-20)
(-0.032308559 -0.0042400251 -4.3852655e-20)
(-0.026156774 -0.0048211569 -2.7739387e-20)
(-0.0016522049 0.0041808801 -5.3716415e-21)
(-0.0053974964 0.0092681656 1.0865469e-20)
(-0.011218539 0.012007477 -1.0191631e-20)
(-0.017658071 0.013153798 3.9230255e-21)
(-0.023856491 0.013195444 4.812183e-21)
(-0.029433386 0.012462751 7.1324597e-22)
(-0.034152394 0.011197034 -2.2509598e-20)
(-0.037860452 0.0095739089 -2.0370411e-21)
(-0.040474369 0.0077189906 2.0163654e-20)
(-0.041958983 0.0057212245 -5.0473861e-21)
(-0.042308997 0.0036428487 -2.1762709e-20)
(-0.041537364 0.0015266865 4.8973427e-21)
(-0.039667714 -0.00059834275 2.263553e-20)
(-0.036729051 -0.00271281 1.0308447e-20)
(-0.032751966 -0.0048027505 2.1854415e-20)
(-0.027769059 -0.0068555829 -1.9770842e-20)
(-0.021824633 -0.008858308 -2.167307e-20)
(-0.014966051 -0.010804328 2.1184756e-20)
(-0.0071287332 -0.012679119 2.6810531e-20)
(0.001874654 -0.014317357 1.5854857e-20)
(-0.0023034356 0.0065602525 -4.3568904e-21)
(-0.0065392405 0.014480236 -5.6387705e-21)
(-0.011892159 0.018710592 3.0723904e-22)
(-0.017211136 0.020428229 1.0959875e-21)
(-0.021819185 0.020400368 6.6918811e-21)
(-0.025431084 0.019151702 1.0665233e-20)
(-0.027877269 0.017066312 -3.7227847e-21)
(-0.029053296 0.014423795 -1.8896275e-20)
(-0.028909046 0.01142435 6.5413534e-21)
(-0.027431036 0.0082098874 1.2862637e-20)
(-0.02462767 0.004879742 5.8341248e-21)
(-0.020520027 0.0015021871 1.8159192e-20)
(-0.01513586 -0.0018769332 1.7296006e-21)
(-0.0085052208 -0.0052273371 -3.3864702e-20)
(-0.00065665502 -0.00852772 1.2020318e-21)
(0.0083813227 -0.011759241 -2.2139317e-20)
(0.018557249 -0.014904251 -2.4466453e-20)
(0.029802647 -0.017953932 4.581999e-20)
(0.042305525 -0.020855322 2.5349512e-20)
(0.056739241 -0.023247996 1.2240678e-22)
(-0.0031290356 0.0083689935 -5.2833284e-21)
(-0.0078964166 0.01833656 -8.4815709e-21)
(-0.01243901 0.023587865 4.3593206e-21)
(-0.016026559 0.025609714 4.1463628e-21)
(-0.018235042 0.025382794 2.0105781e-21)
(-0.018912657 0.023589358 7.3210363e-21)
(-0.017984703 0.020730294 9.3125276e-21)
(-0.015416668 0.017170381 -1.3511442e-21)
(-0.01120697 0.013171297 -1.1482005e-20)
(-0.0053751131 0.008918893 -2.9072022e-20)
(0.0020482836 0.0045433757 6.1894709e-23)
(0.011026741 0.00013422522 4.0698019e-20)
(0.021522527 -0.0042490624 -1.8383255e-20)
(0.033498231 -0.0085677234 -1.2296149e-20)
(0.04692098 -0.012795713 5.5348336e-22)
(0.061760662 -0.016912053 3.2302816e-20)
(0.077953688 -0.020901899 -1.482964e-20)
(0.095393057 -0.024763639 -5.333947e-20)
(0.11439937 -0.028380017 4.5765256e-20)
(0.13634645 -0.031073428 3.3013353e-20)
(-0.0039704188 0.0094657567 -6.8789014e-22)
(-0.0090916752 0.02048784 -1.2534779e-20)
(-0.012364487 0.026159143 -3.4144651e-20)
(-0.013552545 0.028143391 -5.7241899e-21)
(-0.012533225 0.027555049 -3.6222747e-21)
(-0.0093166813 0.02518809 6.3051342e-21)
(-0.0039455632 0.021627418 -4.6462263e-21)
(0.003526258 0.017298943 -8.8070777e-21)
(0.013037009 0.012508709 2.189981e-20)
(0.024521498 0.0074743726 5.0567306e-21)
(0.037915873 0.0023488048 -2.529041e-20)
(0.053157869 -0.0027629143 1.1078325e-20)
(0.070187391 -0.0077910374 0)
(0.088947215 -0.0126915 1.2089631e-20)
(0.10938619 -0.017437152 -9.7016631e-21)
(0.1314583 -0.022010167 -1.4337193e-20)
(0.1550751 -0.026408957 -1.5738806e-21)
(0.18006879 -0.030659774 -2.2181751e-21)
(0.20685477 -0.034576932 4.6147272e-20)
(0.23766513 -0.03702031 -1.0470212e-20)
(-0.0046451072 0.009780885 -7.5356883e-21)
(-0.0096772645 0.020747923 2.4516475e-20)
(-0.011064383 0.026161024 -1.0499383e-20)
(-0.0090968119 0.027724485 -2.7469367e-20)
(-0.003979664 0.02660172 -2.7548217e-20)
(0.0040962878 0.023648413 -1.4921623e-20)
(0.014954314 0.019496437 -6.9060702e-22)
(0.028436472 0.014604657 5.5500068e-21)
(0.044403468 0.0093033677 1.9615961e-20)
(0.062730912 0.0038283036 7.3531145e-21)
(0.083304839 -0.0016549019 -7.1862491e-21)
(0.10601962 -0.0070324221 -2.0102352e-21)
(0.13077434 -0.01222932 -3.8191868e-20)
(0.15747035 -0.017200015 -1.2693698e-20)
(0.18601307 -0.021920039 1.8750699e-20)
(0.216313 -0.026380066 -2.1021776e-20)
(0.24823364 -0.030602618 -8.9730994e-21)
(0.28152026 -0.034671051 3.0440589e-20)
(0.31660881 -0.038365314 5.0472288e-20)
(0.35665213 -0.039964645 3.355984e-21)
(-0.0049617763 0.0093140172 1.6783344e-20)
(-0.0091662753 0.019097741 1.4467972e-20)
(-0.0078593486 0.023563396 5.1145625e-20)
(-0.0018584837 0.024328961 2.3388056e-20)
(0.0082958337 0.022523782 1.8251843e-22)
(0.02222212 0.019014358 -3.9388598e-20)
(0.039597706 0.01444088 -2.4313935e-20)
(0.060148265 0.0092662707 1.0465856e-20)
(0.083639587 0.0038231042 1.4401637e-20)
(0.10986729 -0.0016514606 -1.3113756e-20)
(0.13864636 -0.0069912104 -4.4038874e-20)
(0.16980258 -0.012083089 2.9618609e-20)
(0.20316509 -0.016854444 2.0020622e-20)
(0.23856066 -0.021264325 -2.7551263e-20)
(0.27581369 -0.025296779 1.1650185e-20)
(0.31474968 -0.028957592 2.4197712e-20)
(0.35514722 -0.032303526 8.0724323e-21)
(0.39663583 -0.035507202 -1.1764272e-20)
(0.43957916 -0.038393222 -1.4190342e-20)
(0.48798744 -0.038635038 5.8728354e-21)
(-0.0047307808 0.0081236858 1.1093876e-20)
(-0.0070585935 0.015671191 -2.3352799e-20)
(-0.0020293222 0.018562038 8.6200616e-21)
(0.0090326215 0.018216213 3.358807e-20)
(0.025256539 0.015651113 5.2124476e-20)
(0.046066608 0.011695537 2.027657e-20)
(0.070984902 0.0069608532 -5.8639507e-21)
(0.099602451 0.0018828161 -1.2286322e-20)
(0.13156958 -0.0032273717 -6.2057667e-21)
(0.16657646 -0.0081498713 3.4240944e-20)
(0.2043352 -0.012733576 -4.510458e-21)
(0.24456597 -0.016879486 -1.664336e-20)
(0.286986 -0.020529031 -1.9693637e-20)
(0.33130148 -0.023656803 -4.7443912e-20)
(0.37720627 -0.026265972 2.323879e-20)
(0.42438958 -0.028388349 -1.409604e-20)
(0.4725018 -0.030128159 2.5993514e-20)
(0.52103843 -0.031783779 2.1040913e-20)
(0.57021637 -0.033351323 -8.5570672e-20)
(0.62471175 -0.032059542 -1.0805545e-22)
(-0.003771051 0.0063146447 2.192511e-20)
(-0.0028657403 0.010735091 -2.6165613e-20)
(0.0071421852 0.011564115 -4.5013413e-20)
(0.024450391 0.0099249439 -2.7253859e-20)
(0.047871108 0.0066522309 -2.043993e-21)
(0.076629078 0.002490509 1.3050136e-20)
(0.11007724 -0.0020155392 -2.833778e-21)
(0.14765272 -0.0064880859 1.8118587e-20)
(0.18886178 -0.010663725 8.868585e-21)
(0.23325295 -0.014362684 -1.1380205e-20)
(0.28039267 -0.017469254 8.8779452e-21)
(0.32984741 -0.019917154 -2.3903343e-20)
(0.38117037 -0.021679091 8.0505088e-21)
(0.43389261 -0.022760315 1.6756452e-20)
(0.48752131 -0.023194789 -2.6395214e-21)
(0.54154929 -0.023047429 1.6619022e-21)
(0.59543776 -0.022470034 -3.1957146e-22)
(0.64852029 -0.021870745 1.9590499e-20)
(0.70082498 -0.021445756 4.0434156e-21)
(0.7574542 -0.018499833 -5.7342817e-22)
(-0.0019110055 0.0040273457 2.3692182e-20)
(0.0038694819 0.0046764955 5.7160141e-20)
(0.020315438 0.0031879137 -4.9244356e-20)
(0.045178513 0.00029434581 -9.9454438e-21)
(0.076965504 -0.0034242651 2.0256402e-20)
(0.11469672 -0.0073537343 2.1433775e-21)
(0.15753948 -0.011055142 -2.9815239e-20)
(0.20474914 -0.014244362 6.9848259e-21)
(0.25565051 -0.01673819 7.109811e-21)
(0.30960594 -0.018427258 -2.6254153e-20)
(0.36598788 -0.01926044 1.2927374e-21)
(0.42416119 -0.019232251 -3.7174231e-20)
(0.48347281 -0.01837263 -3.6341138e-20)
(0.54324764 -0.01673875 6.5683721e-20)
(0.60279028 -0.014407824 5.5627708e-21)
(0.66139116 -0.011476471 -1.518887e-20)
(0.71831029 -0.0081026712 1.936404e-20)
(0.77270156 -0.0045935472 -9.1888499e-22)
(0.82409097 -0.00096878796 2.0364615e-20)
(0.87622233 0.0043272669 -1.9554271e-20)
(-0.018836164 -0.0050997497 5.835244e-20)
(-0.010224322 -0.005634978 1.5783765e-20)
(-0.000220768 -0.0060689357 -3.5139793e-20)
(0.010823758 -0.0063341693 1.6790361e-20)
(0.022643114 -0.0065121105 0)
(0.03517866 -0.0066301572 0)
(0.048370577 -0.0066910442 -2.2975124e-20)
(0.062139145 -0.006702614 -1.6502998e-20)
(0.076413953 -0.0066742519 1.9122759e-20)
(0.091135494 -0.0066127464 1.8174191e-20)
(0.10624879 -0.0065232896 1.0524319e-21)
(0.12170205 -0.0064104449 -1.0317723e-20)
(0.13744696 -0.006278171 8.3269699e-21)
(0.15343831 -0.0061298151 1.8233878e-20)
(0.16963333 -0.0059682406 -5.2274858e-21)
(0.18599139 -0.0057959329 -1.0175027e-20)
(0.20247372 -0.0056150631 -4.3196266e-21)
(0.21904329 -0.0054275403 -4.4257701e-21)
(0.2356647 -0.0052350565 7.366752e-22)
(0.25230406 -0.0050391222 1.2286189e-21)
(0.26892904 -0.0048410924 2.5666745e-21)
(0.28550886 -0.0046421868 6.6540304e-21)
(0.30201434 -0.0044435047 2.4892631e-22)
(0.31841793 -0.0042460356 -3.4515225e-21)
(0.3346938 -0.004050667 1.5558491e-22)
(0.35081788 -0.0038581906 -5.7710804e-22)
(0.36676791 -0.0036693064 1.2434604e-21)
(0.3825235 -0.0034846268 1.0522558e-21)
(0.39806613 -0.0033046803 -1.2988448e-21)
(0.41337917 -0.0031299151 -1.221851e-22)
(0.4284479 -0.0029607034 3.5720527e-23)
(0.44325948 -0.0027973451 -3.5188868e-22)
(0.45780292 -0.0026400734 -4.0568663e-22)
(0.47206903 -0.0024890598 5.5435403e-23)
(0.48605041 -0.0023444194 -1.3809883e-22)
(0.49974138 -0.002206218 -2.2344394e-22)
(0.51313792 -0.0020744777 2.5573736e-22)
(0.52623771 -0.0019491842 2.950449e-22)
(0.53903996 -0.0018302959 -8.2890419e-24)
(0.55154579 -0.0017177473 -1.5521885e-22)
(0.56375719 -0.0016114778 3.040615e-23)
(0.57568078 -0.0015113867 -4.0149865e-23)
(0.58731675 -0.0014175457 9.2240608e-23)
(0.59869415 -0.001329618 2.1969552e-23)
(0.60976734 -0.0012488885 -1.1404862e-22)
(0.62072855 -0.0011721463 -6.7701668e-24)
(0.6310997 -0.0011116278 -6.8023712e-26)
(0.64239283 -0.0010343577 -3.5750145e-24)
(0.65047332 -0.0010512654 2.944976e-23)
(0.6670637 -0.00087608277 3.6063288e-22)
(0.010446313 -0.015017754 -1.2746916e-20)
(0.018180226 -0.016641171 -6.330275e-20)
(0.027779844 -0.017915587 -3.054217e-20)
(0.038385885 -0.018672258 3.8476297e-20)
(0.049621848 -0.019183787 1.4662723e-20)
(0.061507623 -0.019529642 -1.8205086e-20)
(0.07401396 -0.019710086 4.6722601e-21)
(0.087063967 -0.019746724 2.5447391e-20)
(0.10059461 -0.019667523 9.1973792e-23)
(0.11455566 -0.019491952 -7.6592004e-21)
(0.12889902 -0.019234621 -1.3021099e-20)
(0.14357807 -0.018908582 -8.5246269e-21)
(0.15854893 -0.018525252 1.7772494e-20)
(0.17377008 -0.018094288 8.9296941e-21)
(0.18920178 -0.017623975 -1.6522558e-20)
(0.20480583 -0.017121536 -6.0391159e-21)
(0.2205455 -0.016593309 3.2145257e-21)
(0.23638543 -0.016044891 8.3716981e-21)
(0.25229155 -0.01548126 6.9833114e-21)
(0.26823111 -0.014906878 -6.9728343e-21)
(0.28417269 -0.014325759 -3.1686357e-21)
(0.30008627 -0.013741529 1.3605996e-21)
(0.31594326 -0.013157463 3.8689475e-22)
(0.33171661 -0.012576515 1.2114299e-21)
(0.34738086 -0.012001343 1.8370182e-22)
(0.36291222 -0.01143432 -3.2663805e-22)
(0.37828863 -0.010877549 -7.2437873e-22)
(0.39348981 -0.010332874 9.7163196e-22)
(0.40849727 -0.0098018897 8.2487898e-22)
(0.42329436 -0.0092859517 -1.5152453e-22)
(0.43786628 -0.0087861888 5.53108e-22)
(0.45220001 -0.0083035159 -2.3881793e-22)
(0.46628436 -0.0078386475 -3.7074528e-22)
(0.4801099 -0.0073921143 -6.100496e-22)
(0.49366891 -0.0069642794 4.4174469e-22)
(0.50695536 -0.006555357 -1.5531717e-23)
(0.51996489 -0.006165432 1.6130523e-22)
(0.53269473 -0.0057944798 -4.4183867e-22)
(0.54514367 -0.0054423938 3.720206e-22)
(0.55731239 -0.005108996 6.718771e-23)
(0.5692024 -0.004794122 -1.0285624e-22)
(0.5808198 -0.0044974884 1.7622941e-22)
(0.59216436 -0.0042193249 2.3354268e-22)
(0.60326438 -0.0039586416 1.6939577e-22)
(0.61407439 -0.0037192876 1.6783619e-22)
(0.62478375 -0.0034917026 -2.6129537e-23)
(0.63492078 -0.0033123548 8.4206739e-23)
(0.64597455 -0.0030830935 7.6455098e-23)
(0.65387551 -0.0031337344 -1.9489994e-22)
(0.67014688 -0.0026140058 -3.7998448e-23)
(0.067615468 -0.024029392 9.452899e-21)
(0.073590537 -0.026749318 3.2951372e-21)
(0.082266478 -0.02880586 -1.216233e-20)
(0.091948907 -0.029968815 -1.2258188e-21)
(0.10198442 -0.030768194 1.497072e-20)
(0.11254768 -0.031331239 -1.4887238e-20)
(0.12367746 -0.031636436 -2.9842532e-20)
(0.13529847 -0.031713388 1.4493664e-20)
(0.14735878 -0.031608034 1.8182143e-20)
(0.15982543 -0.03135047 -1.1598631e-20)
(0.1726628 -0.030962249 1.0190644e-21)
(0.18583323 -0.030463197 8.6860526e-21)
(0.19930048 -0.02987101 -1.5253712e-20)
(0.21302945 -0.029200711 2.9096373e-21)
(0.22698557 -0.028465246 7.5195381e-21)
(0.24113483 -0.027676004 3.1526193e-23)
(0.25544387 -0.026843071 2.6551886e-22)
(0.26988009 -0.025975423 -7.4152069e-21)
(0.28441168 -0.025081105 3.8618263e-21)
(0.29900771 -0.024167374 8.4750589e-21)
(0.31363824 -0.023240803 -3.8352483e-21)
(0.32827442 -0.022307358 -2.2130668e-21)
(0.34288865 -0.021372456 1.0124352e-21)
(0.3574546 -0.020441003 -1.7155844e-21)
(0.37194738 -0.019517428 1.3532476e-21)
(0.38634361 -0.018605699 7.1847214e-22)
(0.40062148 -0.017709348 1.5269693e-21)
(0.41476082 -0.016831478 -1.9528034e-21)
(0.42874315 -0.015974787 2.2237438e-21)
(0.4425517 -0.015141577 5.5192611e-22)
(0.45617143 -0.014333777 4.0333241e-22)
(0.469589 -0.013552962 3.2135643e-22)
(0.48279279 -0.012800375 8.7338053e-22)
(0.49577287 -0.012076957 -1.3710708e-21)
(0.50852092 -0.011383368 3.7072615e-22)
(0.52103029 -0.010720023 1.0948767e-22)
(0.53329586 -0.010087121 -4.5198715e-23)
(0.54531413 -0.0094846783 8.6703692e-23)
(0.55708306 -0.0089125759 -3.7194436e-22)
(0.56860248 -0.0083705739 1.8300689e-22)
(0.57987301 -0.007858454 -3.4994376e-23)
(0.59089981 -0.0073757985 3.9028739e-22)
(0.60168184 -0.0069230382 -1.8557209e-22)
(0.61224603 -0.0064985844 4.7347023e-23)
(0.62254721 -0.0061088318 4.3649918e-23)
(0.63276934 -0.0057380847 -7.368329e-23)
(0.6424529 -0.0054463151 -1.2104493e-22)
(0.65304299 -0.005072544 3.8865671e-22)
(0.66059557 -0.0051565446 1.7291719e-22)
(0.67624861 -0.0043096205 -8.3068563e-22)
(0.1502165 -0.031460784 1.5010337e-21)
(0.1535482 -0.035257778 -1.1566664e-20)
(0.16061764 -0.038011332 6.6442175e-21)
(0.16880744 -0.039479536 -1.3324835e-20)
(0.17698391 -0.040521151 -1.9758454e-21)
(0.18552527 -0.041302765 9.1600347e-21)
(0.19458616 -0.041757745 -9.7663442e-21)
(0.20408904 -0.041914241 1.5662523e-21)
(0.21398997 -0.041833883 1.2903908e-20)
(0.22427846 -0.041554909 3.4032564e-21)
(0.2349352 -0.041102638 -6.2097512e-21)
(0.24593309 -0.040501063 -2.8638652e-21)
(0.25724468 -0.039772382 -5.8409168e-21)
(0.26884245 -0.038935708 -6.4554044e-21)
(0.28069782 -0.038007647 3.2356635e-21)
(0.29278149 -0.037002993 8.4614245e-22)
(0.30506389 -0.035935034 1.368002e-21)
(0.31751544 -0.03481575 -3.38508e-21)
(0.33010673 -0.033655996 -4.2429967e-21)
(0.34280875 -0.032465662 2.3617127e-21)
(0.35559306 -0.031253784 3.2252423e-21)
(0.36843202 -0.030028624 -1.5637046e-21)
(0.3812989 -0.028797732 1.5867795e-21)
(0.39416809 -0.027567985 -3.9127789e-22)
(0.40701515 -0.026345621 -3.9198371e-21)
(0.41981699 -0.025136257 -3.0333722e-21)
(0.43255194 -0.023944909 -1.9030057e-22)
(0.4451998 -0.022776012 4.2856587e-22)
(0.45774192 -0.021633437 -2.2106909e-21)
(0.47016123 -0.02052051 -8.5509271e-22)
(0.48244226 -0.019440037 2.2838365e-22)
(0.49457114 -0.018394335 -1.2500095e-21)
(0.50653559 -0.017385259 6.2309976e-24)
(0.51832494 -0.016414239 -4.2428737e-22)
(0.52993003 -0.015482317 -4.719656e-22)
(0.54134328 -0.014590191 -5.201131e-22)
(0.55255858 -0.013738257 -8.4157468e-22)
(0.56357135 -0.012926654 -5.4479398e-23)
(0.57437847 -0.012155331 -3.916562e-24)
(0.58497857 -0.011424066 -5.1991229e-22)
(0.5953711 -0.010732663 -9.1586248e-23)
(0.60555995 -0.010080647 -3.3257303e-22)
(0.61554294 -0.0094687116 -4.3790809e-22)
(0.62534513 -0.0088947591 3.7869823e-22)
(0.63492188 -0.0083676826 1.4832541e-23)
(0.64444945 -0.0078660246 1.8257268e-22)
(0.65348585 -0.0074720019 -1.3270391e-22)
(0.66341299 -0.0069658027 -2.6728216e-22)
(0.67046761 -0.0070823619 -4.4482981e-23)
(0.68523384 -0.0059363214 4.6247204e-22)
(0.25468734 -0.036553222 -2.0900458e-20)
(0.25447197 -0.041394004 4.7586227e-20)
(0.2590752 -0.044746185 1.034815e-20)
(0.26508612 -0.0464426 -1.5765426e-20)
(0.27071146 -0.047714899 -2.0228316e-21)
(0.27652221 -0.048748388 2.6232203e-21)
(0.2828379 -0.049414358 -1.6608585e-21)
(0.28957947 -0.049728766 -4.6861784e-21)
(0.29669931 -0.049762123 -4.0159498e-21)
(0.30420837 -0.049557771 -1.2207743e-20)
(0.31210527 -0.049142431 1.789796e-20)
(0.32037267 -0.04854157 6.5220837e-21)
(0.3289905 -0.047779757 -1.6780683e-20)
(0.33793776 -0.046878835 1.0317609e-20)
(0.34719105 -0.04585814 8.385005e-21)
(0.35672498 -0.044735176 -8.7917402e-22)
(0.36651296 -0.043525954 -3.1222056e-21)
(0.3765277 -0.042245158 -3.8198481e-21)
(0.38674153 -0.040906294 -1.3893115e-21)
(0.39712676 -0.039521812 -1.2304701e-21)
(0.4076559 -0.038103207 -3.0258757e-21)
(0.41830198 -0.036661081 0)
(0.42903874 -0.035205195 -1.3452515e-21)
(0.43984077 -0.033744492 3.9310473e-21)
(0.45068375 -0.03228713 5.4054717e-21)
(0.4615445 -0.03084049 -9.4114087e-22)
(0.47240113 -0.0294112 -2.9276475e-21)
(0.48323312 -0.028005147 3.0260906e-21)
(0.49402134 -0.026627498 2.5440706e-22)
(0.50474815 -0.025282727 3.4355333e-21)
(0.51539739 -0.02397464 -5.346138e-22)
(0.52595441 -0.022706413 1.7174874e-21)
(0.53640604 -0.021480628 -7.9975077e-22)
(0.54674061 -0.020299323 2.9102679e-22)
(0.55694793 -0.019164032 -4.3413691e-22)
(0.56701926 -0.018075847 5.623925e-22)
(0.5769473 -0.01703547 4.5720738e-22)
(0.58672621 -0.016043268 3.8265956e-22)
(0.59635152 -0.015099361 -9.5964426e-22)
(0.60582053 -0.014203644 6.837865e-22)
(0.61513129 -0.01335604 -3.697109e-22)
(0.62428617 -0.012556111 -1.1038679e-21)
(0.63328176 -0.01180489 1.4086274e-21)
(0.64214084 -0.011099883 -6.2038028e-23)
(0.65081955 -0.010452407 -1.5829072e-22)
(0.65948461 -0.0098357451 -7.8328063e-24)
(0.66771623 -0.0093526421 -1.264388e-22)
(0.67681657 -0.008729845 -4.6640707e-22)
(0.68325098 -0.0088777471 8.7869254e-22)
(0.69690562 -0.0074695379 -4.4337193e-23)
(0.37635341 -0.03836874 -1.7495225e-20)
(0.37171198 -0.044270836 1.2832108e-20)
(0.37286922 -0.048162253 2.9755107e-21)
(0.3759129 -0.050099524 -7.6354247e-21)
(0.37830784 -0.051670676 1.2056066e-20)
(0.38072565 -0.053043109 7.7914688e-21)
(0.38367887 -0.054030806 -1.264776e-20)
(0.38710359 -0.0546339 -6.0680239e-21)
(0.39093241 -0.054918831 1.2697442e-20)
(0.39518578 -0.05492799 -1.5305161e-20)
(0.39987778 -0.0546884 -1.4063311e-20)
(0.4049988 -0.054225567 1.4129837e-20)
(0.41053256 -0.053564602 6.8194504e-21)
(0.41646134 -0.052728919 -4.2039143e-21)
(0.42276454 -0.051740015 -1.8545109e-21)
(0.42941869 -0.050617776 -4.0581439e-21)
(0.4363984 -0.049380756 5.3047389e-21)
(0.44367716 -0.04804631 3.6682502e-21)
(0.45122775 -0.04663066 -3.2408476e-21)
(0.45902262 -0.045148957 3.1379862e-21)
(0.46703426 -0.043615332 2.7667574e-21)
(0.47523546 -0.042042932 -3.2111998e-21)
(0.48359964 -0.040443941 3.7057143e-22)
(0.49210093 -0.038829592 -3.2572126e-21)
(0.50071447 -0.037210179 7.245819e-21)
(0.50941646 -0.035595061 6.1083346e-21)
(0.51818428 -0.03399268 8.0982687e-22)
(0.52699664 -0.03241057 -1.7684048e-21)
(0.53583357 -0.030855383 3.7025174e-21)
(0.54467648 -0.029332913 7.189161e-21)
(0.55350824 -0.027848135 2.3050843e-21)
(0.56231313 -0.026405242 3.3168467e-21)
(0.57107685 -0.025007698 1.9958219e-21)
(0.57978656 -0.023658288 7.4569036e-22)
(0.58843082 -0.022359181 -2.63761e-22)
(0.5969996 -0.021111994 2.7208057e-21)
(0.60548425 -0.019917859 6.2004419e-22)
(0.61387756 -0.018777496 2.9493721e-22)
(0.62217364 -0.01769131 5.624342e-23)
(0.6303683 -0.016659427 9.9001736e-22)
(0.63845817 -0.015681996 4.7030509e-23)
(0.646444 -0.014758716 4.4269639e-22)
(0.65432109 -0.013891044 -1.2627268e-22)
(0.66210975 -0.013076213 -2.7754331e-22)
(0.66976724 -0.012327863 -1.5230431e-22)
(0.6774492 -0.011614609 -4.2247268e-22)
(0.68476211 -0.011057655 1.6164871e-22)
(0.69291477 -0.010336745 -1.2737671e-22)
(0.69864017 -0.010514414 -5.0117109e-22)
(0.71101163 -0.0088873812 2.4599076e-22)
(0.50927676 -0.03597495 3.6471351e-21)
(0.49953294 -0.042961365 -1.8958378e-20)
(0.49627821 -0.047384198 -2.3084048e-21)
(0.49555869 -0.049737536 5.4869806e-21)
(0.49417242 -0.051818835 3.0528476e-21)
(0.49269875 -0.053706235 -4.9851516e-23)
(0.49181545 -0.055188507 6.1897542e-21)
(0.49151781 -0.05626629 7.6251714e-21)
(0.49171513 -0.056991457 9.8581062e-21)
(0.49241435 -0.05739653 -1.1250148e-20)
(0.49363485 -0.05750729 -2.1579658e-20)
(0.49537177 -0.057349437 -3.9354257e-21)
(0.49760887 -0.056948182 1.5938335e-20)
(0.50032743 -0.056328091 1.2809113e-20)
(0.5035063 -0.055512846 -5.9067192e-21)
(0.50712141 -0.05452499 1.381652e-21)
(0.51114654 -0.053385959 -3.660193e-21)
(0.51555417 -0.052116146 2.2445299e-21)
(0.520316 -0.050734887 -2.9123374e-22)
(0.52540337 -0.049260438 -1.8654508e-21)
(0.53078762 -0.047709969 7.8268253e-21)
(0.53644037 -0.046099556 -2.9313375e-22)
(0.54233382 -0.044444174 4.1822969e-22)
(0.54844093 -0.04275769 -6.5643176e-22)
(0.55473558 -0.041052854 -4.3030846e-21)
(0.56119275 -0.039341306 4.2086722e-21)
(0.56778861 -0.037633578 1.9031567e-21)
(0.57450059 -0.03593911 -3.3083392e-21)
(0.58130745 -0.034266275 -4.1117808e-21)