/*--------------------------------*- C++ -*----------------------------------*\
  =========                 |
  \\      /  F ield         | OpenFOAM: The Open Source CFD Toolbox
   \\    /   O peration     | Website:  https://openfoam.org
    \\  /    A nd           | Version:  6
     \\/     M anipulation  |
\*---------------------------------------------------------------------------*/
FoamFile
{
    version     2.0;
    format      ascii;
    class       volScalarField;
    location    "64";
    object      p;
}
// * * * * * * * * * * * * * * * * * * * * * * * * * * * * * * * * * * * * * //

dimensions      [0 2 -2 0 0 0 0];

internalField   nonuniform List<scalar> 
9200
(
-0.38083362
-0.36947293
-0.35936711
-0.35040754
-0.34165807
-0.33313246
-0.32490894
-0.31695476
-0.30920233
-0.3015794
-0.29401271
-0.28643295
-0.27878171
-0.2710188
-0.26313286
-0.25515914
-0.24717405
-0.2392656
-0.2324577
-0.23103008
-0.3987128
-0.38489922
-0.37284852
-0.36236821
-0.35224581
-0.34246257
-0.33308711
-0.32405585
-0.31526891
-0.3066276
-0.2980384
-0.28941884
-0.28070504
-0.27185773
-0.26286784
-0.25376042
-0.24456557
-0.23528336
-0.22659596
-0.22066761
-0.41700856
-0.40071954
-0.38677015
-0.37483976
-0.36339983
-0.35238088
-0.34183015
-0.33164554
-0.32169292
-0.31185108
-0.30201543
-0.29210374
-0.28206288
-0.27187198
-0.26154225
-0.25111264
-0.24062227
-0.23008048
-0.2198862
-0.21115363
-0.43528615
-0.41654111
-0.40075865
-0.38743988
-0.37470259
-0.36241019
-0.35058072
-0.33907303
-0.32772678
-0.31641366
-0.30503891
-0.29354428
-0.28191127
-0.27015878
-0.2583365
-0.2465146
-0.23476007
-0.22311215
-0.21183821
-0.20167905
-0.4529147
-0.43181703
-0.41431849
-0.39968845
-0.38566331
-0.3720286
-0.35877302
-0.34572715
-0.33272505
-0.31965853
-0.3064724
-0.29316075
-0.27976273
-0.26635265
-0.25302645
-0.2398875
-0.22702624
-0.21450145
-0.20250137
-0.19153343
-0.46906863
-0.44582732
-0.42678855
-0.41093663
-0.39561679
-0.3805368
-0.36566858
-0.35084015
-0.33591421
-0.32083917
-0.30563236
-0.29036485
-0.27514713
-0.2601109
-0.24539081
-0.23110926
-0.21736115
-0.2042025
-0.19175933
-0.18036855
-0.48274163
-0.45768452
-0.43734306
-0.42036923
-0.40373408
-0.38708351
-0.37040058
-0.35355163
-0.33647261
-0.31920794
-0.30187568
-0.28463768
-0.26767477
-0.25116318
-0.23525575
-0.2200706
-0.20568355
-0.1921257
-0.17946389
-0.16789945
-0.49276873
-0.46635735
-0.44502407
-0.42705177
-0.40908716
-0.39074834
-0.37207229
-0.35301602
-0.33363721
-0.3141113
-0.29467431
-0.27557838
-0.25706
-0.23931647
-0.22249282
-0.20667896
-0.19191204
-0.1781838
-0.16550307
-0.15395713
-0.49780657
-0.47056935
-0.44854429
-0.42964709
-0.41029875
-0.39015182
-0.3693573
-0.34802021
-0.32635953
-0.30469719
-0.2833805
-0.26272915
-0.24300438
-0.22439323
-0.2070066
-0.19088756
-0.17602384
-0.16236363
-0.1498617
-0.13850772
-0.49650383
-0.46890253
-0.44635486
-0.42648855
-0.40564589
-0.38359761
-0.36067432
-0.33717478
-0.31349303
-0.29008043
-0.2673582
-0.24566801
-0.22525301
-0.20625699
-0.18873632
-0.17267865
-0.1580228
-0.14467907
-0.13255542
-0.12155653
-0.26780991
-0.27248935
-0.27499993
-0.27575086
-0.27553515
-0.27453986
-0.27284654
-0.27054276
-0.26770077
-0.26437532
-0.26061044
-0.25644364
-0.25190804
-0.24703369
-0.24184886
-0.23638245
-0.23066537
-0.22471814
-0.21853976
-0.21221593
-0.27054693
-0.27481035
-0.27701368
-0.27754564
-0.27714663
-0.27599498
-0.27417029
-0.27175646
-0.26882215
-0.26541925
-0.2615894
-0.25736799
-0.25278623
-0.24787219
-0.24265152
-0.23715211
-0.23141232
-0.22545107
-0.21916079
-0.21251536
-0.27588471
-0.27933462
-0.28093901
-0.28104265
-0.2802843
-0.27882681
-0.27674625
-0.27411924
-0.27100748
-0.26745724
-0.26350532
-0.2591829
-0.25451738
-0.249533
-0.24425056
-0.23869507
-0.23291634
-0.22693214
-0.22044274
-0.21318957
-0.28358266
-0.2858681
-0.28660562
-0.2860797
-0.28478782
-0.28287321
-0.28040796
-0.2774588
-0.27407777
-0.27030328
-0.26616524
-0.26168873
-0.25689563
-0.25180445
-0.24642917
-0.24078963
-0.23494756
-0.22892542
-0.22217678
-0.21407241
-0.29333769
-0.29416713
-0.29380149
-0.29245725
-0.29046268
-0.28794019
-0.28495867
-0.28157355
-0.27782543
-0.27374345
-0.26934928
-0.2646597
-0.25968904
-0.25444888
-0.24894509
-0.24318911
-0.23725063
-0.23116532
-0.22412757
-0.21499241
-0.30483521
-0.30397891
-0.3023087
-0.29997393
-0.29711686
-0.29384043
-0.29021258
-0.2862777
-0.28206437
-0.27759006
-0.27286561
-0.26789852
-0.2626943
-0.2572561
-0.2515806
-0.24566793
-0.23958774
-0.23339512
-0.22605359
-0.21578139
-0.31779568
-0.31507797
-0.31193621
-0.30845979
-0.3045963
-0.30043243
-0.29603903
-0.29144905
-0.28667637
-0.28172593
-0.27659706
-0.27128596
-0.26578752
-0.26009529
-0.25419688
-0.24808057
-0.24180876
-0.23545917
-0.22782786
-0.21642784
-0.33200272
-0.32728898
-0.32254195
-0.31780084
-0.31281435
-0.30765589
-0.30239954
-0.29706601
-0.2916544
-0.28615521
-0.28055335
-0.27483073
-0.26896857
-0.26294829
-0.25674781
-0.25034646
-0.24380384
-0.23724361
-0.22941381
-0.21711795
-0.34730308
-0.34047941
-0.33401545
-0.32791037
-0.32170667
-0.31546314
-0.30925897
-0.30310215
-0.2969741
-0.29084764
-0.28468973
-0.27846377
-0.27213182
-0.26565497
-0.25898863
-0.25208479
-0.24496758
-0.23774322
-0.22915551
-0.21570137
-0.36359783
-0.35454144
-0.34624441
-0.33867083
-0.33114354
-0.3237065
-0.31644395
-0.30934879
-0.30238227
-0.2954979
-0.28864431
-0.2817681
-0.27481674
-0.26773859
-0.26047769
-0.25296953
-0.24515692
-0.23683339
-0.22634918
-0.21066322
-0.20504534
-0.19607144
-0.18709144
-0.17816963
-0.16925221
-0.16038093
-0.15160949
-0.1429731
-0.13450119
-0.12622249
-0.11816295
-0.11034488
-0.10278752
-0.095507361
-0.088518066
-0.0818306
-0.075453316
-0.069392059
-0.063650263
-0.058229057
-0.053127395
-0.048342187
-0.043868453
-0.039699487
-0.035827033
-0.032241473
-0.028932017
-0.025886899
-0.023093573
-0.020538899
-0.018209329
-0.016091082
-0.014170306
-0.012433227
-0.010866291
-0.0094562874
-0.0081904782
-0.0070566799
-0.0060434779
-0.0051400218
-0.0043372367
-0.0036246365
-0.0030012183
-0.0024433468
-0.0020041108
-0.0015217817
-0.0014821175
-0.00053801418
-0.0026373729
0.0032165409
-0.20606059
-0.19668857
-0.18759939
-0.17869214
-0.16975677
-0.1608553
-0.15205944
-0.14340081
-0.13490633
-0.12660529
-0.11852393
-0.11068445
-0.10310608
-0.095805357
-0.088796037
-0.08208914
-0.075693083
-0.069613772
-0.063854693
-0.05841702
-0.053299737
-0.048499778
-0.044012173
-0.03983022
-0.035945657
-0.032348852
-0.029028994
-0.025974292
-0.023172167
-0.020609445
-0.018272541
-0.016147633
-0.014220827
-0.012478305
-0.010906473
-0.0094920756
-0.0082223329
-0.0070850196
-0.0060686804
-0.0051624243
-0.0043571354
-0.0036422894
-0.0030168213
-0.0024571077
-0.0020159145
-0.0015322625
-0.0014887378
-0.0005473962
-0.0026240512
0.0031831934
-0.20818941
-0.19796498
-0.18865811
-0.17982012
-0.17086137
-0.16189925
-0.15305583
-0.14435324
-0.13581174
-0.12746279
-0.11933386
-0.11144703
-0.10382164
-0.096474591
-0.0894199
-0.082668816
-0.076229967
-0.070109447
-0.064310896
-0.058835611
-0.053682671
-0.048849069
-0.044329874
-0.040118391
-0.036206348
-0.032584078
-0.029240724
-0.02616443
-0.02334254
-0.020761796
-0.018408521
-0.016268794
-0.014328621
-0.012574082
-0.010991479
-0.0095674544
-0.0082891288
-0.0071441785
-0.0061210527
-0.0052087668
-0.0043981119
-0.0036784745
-0.0030486632
-0.0024850497
-0.002039797
-0.0015532986
-0.0015020739
-0.00056590151
-0.0025977754
0.0031171175
-0.21127151
-0.19966772
-0.19003954
-0.18140163
-0.172454
-0.1634153
-0.15451791
-0.14576654
-0.13716611
-0.12875318
-0.12055894
-0.11260552
-0.10491258
-0.097497842
-0.090376048
-0.083558969
-0.077055698
-0.070872736
-0.065014065
-0.059481251
-0.054273577
-0.04938819
-0.044820255
-0.04056313
-0.036608549
-0.032946822
-0.02956703
-0.026457233
-0.02360467
-0.020995956
-0.018617277
-0.016454564
-0.014493669
-0.012720512
-0.011121236
-0.0096823244
-0.0083907404
-0.0072340067
-0.0062004231
-0.005278858
-0.0044599581
-0.0037329692
-0.0030965084
-0.0025269285
-0.0020755039
-0.0015846301
-0.0015218917
-0.00059319772
-0.0025589147
0.003019619
-0.21507814
-0.20152458
-0.1914728
-0.18323735
-0.17438664
-0.1652742
-0.15633407
-0.14755043
-0.13889665
-0.13041651
-0.12214974
-0.11411962
-0.10634622
-0.098848721
-0.091643272
-0.084742677
-0.078156878
-0.071893123
-0.065956017
-0.060347632
-0.055067648
-0.050113515
-0.045480614
-0.041162441
-0.037150804
-0.033436022
-0.030007141
-0.026852136
-0.023958127
-0.021311585
-0.018898523
-0.016704684
-0.014715719
-0.012917342
-0.01129548
-0.0098364064
-0.0085268723
-0.0073541928
-0.0063064652
-0.0053723582
-0.0045423223
-0.0038054121
-0.0031599863
-0.0025823668
-0.0021226537
-0.0016258646
-0.0015478675
-0.00062875986
-0.0025081269
0.0028927458
-0.21925945
-0.20325346
-0.19268721
-0.18509223
-0.17648516
-0.16733095
-0.15837064
-0.14958937
-0.14090919
-0.13237541
-0.12404162
-0.11593559
-0.1080784
-0.10049112
-0.093192122
-0.08619602
-0.079514175
-0.073155048
-0.067124278
-0.061424786
-0.056056939
-0.05101872
-0.046305917
-0.041912312
-0.037829899
-0.034049092
-0.03055895
-0.027347401
-0.02440146
-0.021707445
-0.019251182
-0.017018199
-0.01499391
-0.013163779
-0.011513474
-0.010029007
-0.0086968646
-0.0075041043
-0.0064385689
-0.0054886761
-0.0046446292
-0.0038952417
-0.0032385476
-0.0026508274
-0.0021807231
-0.0016764809
-0.0015795857
-0.00067192536
-0.0024462661
0.0027391443
-0.22341521
-0.20467167
-0.19347015
-0.18668698
-0.17854728
-0.169457
-0.16051108
-0.1517697
-0.14310642
-0.13455065
-0.12616838
-0.1179973
-0.11006182
-0.10238536
-0.094989276
-0.087890931
-0.081103911
-0.074638503
-0.068501899
-0.062698323
-0.057229196
-0.052093342
-0.047287201
-0.042805042
-0.038639195
-0.034780285
-0.031217472
-0.027938689
-0.024930877
-0.022180214
-0.019672337
-0.017392539
-0.015325972
-0.013457813
-0.011773432
-0.010258532
-0.0088992933
-0.0076824634
-0.006595583
-0.0056267699
-0.0047659311
-0.0040015913
-0.0033313939
-0.0027315735
-0.0022490286
-0.0017358392
-0.0016165481
-0.00072197896
-0.0023743
0.0025619046
-0.2272817
-0.20617419
-0.1940462
-0.18783377
-0.18035776
-0.17156396
-0.16271089
-0.15403431
-0.14542545
-0.13688565
-0.12847991
-0.12025857
-0.11225384
-0.10449266
-0.096999747
-0.089795989
-0.082897991
-0.076318492
-0.070066744
-0.064148706
-0.058567232
-0.053322301
-0.048411264
-0.043829089
-0.039568615
-0.035620812
-0.031975041
-0.028619314
-0.025540546
-0.022724805
-0.020157545
-0.017823824
-0.015708513
-0.013796478
-0.012072758
-0.010522711
-0.0091321662
-0.007887522
-0.0067759712
-0.0057852868
-0.0049050333
-0.0041234032
-0.0034375831
-0.0028237664
-0.0023268184
-0.0018032646
-0.0016582479
-0.00077822767
-0.0022932676
0.0023645174
-0.22851265
-0.20800196
-0.1951088
-0.18846778
-0.18148017
-0.17326982
-0.16469486
-0.15614872
-0.14764806
-0.1391864
-0.13081154
-0.12258154
-0.11453971
-0.10671887
-0.099147677
-0.091851145
-0.084849754
-0.078159529
-0.071792516
-0.065757072
-0.060058089
-0.05469724
-0.049673255
-0.044982203
-0.040617771
-0.036571557
-0.03283335
-0.029391421
-0.0262328
-0.023343546
-0.020709
-0.018314026
-0.016143234
-0.014181184
-0.012412569
-0.01082238
-0.0093960646
-0.0081196303
-0.0069798815
-0.0059642003
-0.0050617614
-0.0042603774
-0.003556712
-0.002926911
-0.002413546
-0.0018780992
-0.0017042366
-0.00083956968
-0.0022046509
0.0021516555
-0.21863776
-0.20723733
-0.19621953
-0.18811403
-0.18103882
-0.17360493
-0.16563843
-0.15746017
-0.1492492
-0.14103166
-0.1328354
-0.12471806
-0.11673535
-0.10893034
-0.10133903
-0.093993102
-0.086919361
-0.080139377
-0.073669933
-0.067523446
-0.061708253
-0.056228909
-0.051086519
-0.046279073
-0.04180178
-0.037647405
-0.033806599
-0.030268231
-0.027019701
-0.024047249
-0.021336236
-0.018871425
-0.016637216
-0.014617884
-0.012797776
-0.011161499
-0.0096940856
-0.0083811153
-0.0072089564
-0.0061645489
-0.0052366259
-0.0044125626
-0.0036884421
-0.0030403137
-0.0025083109
-0.0019590383
-0.0017536887
-0.00090331087
-0.0021110315
0.0019295209
-0.19650074
-0.2011746
-0.1958807
-0.18696118
-0.17944109
-0.17241344
-0.16489187
-0.15701212
-0.14904008
-0.14103904
-0.13302869
-0.12506209
-0.1171987
-0.10948602
-0.10196321
-0.094664901
-0.087620864
-0.080855473
-0.074388035
-0.068233237
-0.06240145
-0.056899028
-0.051728648
-0.046889662
-0.042378446
-0.038188752
-0.034312056
-0.030737901
-0.027454231
-0.02444771
-0.021704022
-0.019208159
-0.016944677
-0.014897937
-0.01305232
-0.011392414
-0.0099032035
-0.0085701811
-0.0073796013
-0.0063182747
-0.00537474
-0.0045362716
-0.0037983779
-0.0031377635
-0.0025909586
-0.0020328674
-0.0017958316
-0.00096650708
-0.0020116494
0.001707124
-0.18592056
-0.19170483
-0.1882131
-0.17946373
-0.17224596
-0.16597199
-0.15925315
-0.15208965
-0.14477725
-0.13739107
-0.12994101
-0.1224758
-0.11505731
-0.10773674
-0.1005568
-0.093555931
-0.086767955
-0.080221245
-0.073938952
-0.067939403
-0.062236391
-0.05683945
-0.051754194
-0.046982661
-0.042523676
-0.038373206
-0.034524718
-0.030969533
-0.027697174
-0.024695694
-0.021951993
-0.019452114
-0.017181518
-0.015125333
-0.013268584
-0.011596395
-0.010094182
-0.0087477857
-0.007543717
-0.0064689985
-0.005512214
-0.0046608816
-0.0039098526
-0.0032373544
-0.0026746601
-0.0021093925
-0.001834642
-0.0010374994
-0.0018902515
0.0014649003
-0.17714716
-0.18033228
-0.17803711
-0.17100941
-0.16464519
-0.15906709
-0.15311698
-0.14668567
-0.14003945
-0.13327347
-0.12639978
-0.11946089
-0.11251745
-0.10562248
-0.098820772
-0.092153162
-0.08565636
-0.079361956
-0.073296392
-0.067481281
-0.061933638
-0.056666107
-0.05168725
-0.047001884
-0.042611412
-0.038514181
-0.034705834
-0.031179666
-0.02792697
-0.024937382
-0.0221992
-0.019699691
-0.017425377
-0.015362299
-0.013496258
-0.011813025
-0.010298551
-0.0089391112
-0.0077215427
-0.0066331431
-0.0056625775
-0.0047976679
-0.0040325456
-0.0033471788
-0.0027669453
-0.0021937882
-0.0018768714
-0.0011157984
-0.0017538381
0.0011965432
-0.16743024
-0.1680104
-0.1661614
-0.16121127
-0.15607939
-0.15124592
-0.14608883
-0.14047125
-0.13457011
-0.12848624
-0.1222475
-0.11589446
-0.10948432
-0.10307071
-0.096700285
-0.090415849
-0.084256602
-0.078257093
-0.07244695
-0.066851067
-0.061489763
-0.056378939
-0.051530313
-0.04695171
-0.042647373
-0.038618297
-0.034862568
-0.031375718
-0.02815107
-0.02518008
-0.022452667
-0.019957529
-0.017682437
-0.015614513
-0.013740479
-0.012046888
-0.010520334
-0.0091476239
-0.0079160012
-0.006813102
-0.0058277219
-0.0049480218
-0.004167424
-0.0034676607
-0.0028680994
-0.0022852314
-0.0019232802
-0.0011970243
-0.0016113422
0.00091415215
-0.15681845
-0.15552524
-0.15370015
-0.15046519
-0.14662809
-0.14260133
-0.13824295
-0.13347119
-0.12836892
-0.12301901
-0.11746492
-0.11174992
-0.10592698
-0.10004851
-0.094162067
-0.088311718
-0.082538406
-0.076879064
-0.071366143
-0.066027604
-0.060886978
-0.055963439
-0.051271965
-0.046823559
-0.042625519
-0.038681732
-0.034992996
-0.031557351
-0.028370417
-0.025425734
-0.022715094
-0.020228859
-0.017956264
-0.015885707
-0.014005007
-0.012301653
-0.01076302
-0.0093765569
-0.0081300145
-0.0070114444
-0.0060098388
-0.0051137304
-0.0043158892
-0.0035997416
-0.0029788177
-0.0023836709
-0.0019745789
-0.0012791982
-0.00146916
0.00062737182
-0.14498906
-0.14291079
-0.14120276
-0.13924194
-0.13657654
-0.13338735
-0.12981757
-0.12587187
-0.12157202
-0.11697367
-0.11212773
-0.10707909
-0.10187646
-0.096569832
-0.091206483
-0.085830697
-0.080484043
-0.075204853
-0.070027638
-0.06498285
-0.060096808
-0.055391679
-0.050885543
-0.046592533
-0.042523035
-0.03868393
-0.035078875
-0.031708601
-0.028571235
-0.025662616
-0.022976629
-0.020505517
-0.018240189
-0.016170515
-0.014285595
-0.012574016
-0.011024082
-0.0096240175
-0.0083621895
-0.0072271577
-0.0062081945
-0.005294242
-0.0044775144
-0.0037430038
-0.0030988021
-0.0024885058
-0.00203109
-0.0013607221
-0.0013337732
0.00034637802
-0.13225479
-0.13031081
-0.12895317
-0.12790428
-0.12620293
-0.12382461
-0.12101639
-0.11785053
-0.11432371
-0.11046532
-0.10632535
-0.10195012
-0.097382769
-0.092668451
-0.087853053
-0.082980278
-0.078091285
-0.073224655
-0.068415958
-0.063697325
-0.059097208
-0.054640246
-0.05034724
-0.04623519
-0.042317418
-0.038603739
-0.035100679
-0.031811731
-0.028737636
-0.025876685
-0.023225018
-0.020776937
-0.018525207
-0.01646135
-0.01457592
-0.012858766
-0.011299272
-0.0098865735
-0.008609776
-0.0074580479
-0.0064210398
-0.0054881457
-0.0046511552
-0.0038964551
-0.0032272965
-0.0025988521
-0.0020929527
-0.0014401231
-0.0012119181
8.2151756e-05
-0.11933195
-0.1179713
-0.11710409
-0.11671106
-0.11576557
-0.11412337
-0.11202694
-0.10957922
-0.10677342
-0.10362121
-0.10016473
-0.096448388
-0.092511934
-0.088394673
-0.084137989
-0.079783929
-0.075372567
-0.070941748
-0.066527011
-0.062161203
-0.057874085
-0.053692082
-0.049638145
-0.0457317
-0.041988675
-0.038421592
-0.03503971
-0.031849226
-0.028853504
-0.026053334
-0.023447208
-0.021031606
-0.018801288
-0.016749574
-0.014868626
-0.013149703
-0.011583417
-0.010159946
-0.0088692608
-0.007701246
-0.0066460367
-0.00569353
-0.0048352466
-0.0040587795
-0.0033632812
-0.0027137378
-0.0021601623
-0.0015163535
-0.0011096925
-0.00015474676
-0.1067632
-0.10607081
-0.10572068
-0.1058219
-0.10546475
-0.10446052
-0.1030065
-0.1012068
-0.09905795
-0.096562133
-0.093751676
-0.09066561
-0.08733929
-0.083807744
-0.080107413
-0.076275939
-0.072351264
-0.068369837
-0.064366269
-0.06037314
-0.056420631
-0.052536163
-0.048744155
-0.045065882
-0.041519407
-0.038119589
-0.034878152
-0.031803811
-0.028902439
-0.026177282
-0.023629187
-0.021256862
-0.01905714
-0.017025243
-0.015155056
-0.013439376
-0.011870166
-0.010438776
-0.0091361615
-0.0079530306
-0.006880115
-0.0059078734
-0.0050277292
-0.0042283016
-0.0035054643
-0.0028321494
-0.0022325502
-0.0015889759
-0.0010317447
-0.00035557721
-0.094833552
-0.094728161
-0.09484721
-0.095336333
-0.095440801
-0.09497192
-0.094079169
-0.092852821
-0.09129167
-0.089393172
-0.087180558
-0.084685816
-0.081939047
-0.078970158
-0.075811226
-0.072495578
-0.069057068
-0.065529698
-0.061946457
-0.058338859
-0.054736642
-0.051167417
-0.047656341
-0.044225889
-0.040895701
-0.037682506
-0.03460011
-0.031659452
-0.028868703
-0.02623342
-0.023756726
-0.021439524
-0.019280734
-0.017277527
-0.015425582
-0.013719326
-0.012152173
-0.010716751
-0.0094051095
-0.0082088813
-0.007119505
-0.0061280665
-0.0052260688
-0.0044030072
-0.0036523094
-0.0029530565
-0.002309772
-0.0016581331
-0.00098063141
-0.00051462462
-0.08368293
-0.084034083
-0.084536019
-0.085327919
-0.085793436
-0.08576203
-0.085345059
-0.084614899
-0.083569917
-0.082204663
-0.080534713
-0.078584679
-0.07637889
-0.07394196
-0.071300843
-0.068484596
-0.065523071
-0.062446533
-0.05928544
-0.05606955
-0.052827426
-0.049586102
-0.046370747
-0.043204366
-0.040107572
-0.037098433
-0.03419239
-0.03140223
-0.028738124
-0.026207713
-0.023816235
-0.021566687
-0.01946002
-0.017495346
-0.015670158
-0.01398056
-0.012421488
-0.010986927
-0.0096701097
-0.0084636856
-0.0073599016
-0.0063505412
-0.0054273592
-0.0045806216
-0.0038021009
-0.0030754405
-0.0023913126
-0.001724436
-0.00095648266
-0.00063009178
-0.073371544
-0.074051008
-0.074839585
-0.075856598
-0.076597404
-0.076913384
-0.076887731
-0.076576196
-0.07597505
-0.075076425
-0.07388957
-0.072432157
-0.070722635
-0.06878029
-0.066626873
-0.064286564
-0.061785087
-0.059148933
-0.056405121
-0.053580892
-0.050702988
-0.047797192
-0.044887994
-0.041998269
-0.039148985
-0.036358992
-0.033644865
-0.031020812
-0.028498643
-0.026087791
-0.02379538
-0.021626332
-0.019583517
-0.017667916
-0.015878812
-0.01421399
-0.012669939
-0.01124205
-0.0099248111
-0.0087119582
-0.0075966383
-0.0065714034
-0.0056284227
-0.0047586755
-0.0039529882
-0.0031982747
-0.0024764624
-0.0017887242
-0.00095699998
-0.0007043749
-0.063911165
-0.064811652
-0.065798081
-0.066969105
-0.067909683
-0.06849175
-0.068777598
-0.068809209
-0.068580397
-0.068081154
-0.067315496
-0.066294957
-0.065032404
-0.063541943
-0.061840227
-0.05994651
-0.05788197
-0.055669131
-0.053331429
-0.050892915
-0.048377865
-0.045810218
-0.043213163
-0.040608813
-0.038017886
-0.035459443
-0.03295067
-0.030506729
-0.028140662
-0.025863346
-0.023683508
-0.021607771
-0.019640753
-0.017785183
-0.016042061
-0.014410812
-0.012889474
-0.011474867
-0.010162768
-0.0089480603
-0.0078248648
-0.0067865711
-0.00582591
-0.004934564
-0.0041030155
-0.0033204827
-0.0025642928
-0.0018518122
-0.00097788351
-0.00074363486
-0.055286884
-0.056324186
-0.057433889
-0.0586969
-0.059771493
-0.060547842
-0.06107239
-0.061376202
-0.06145105
-0.061285232
-0.060878549
-0.06023733
-0.059369453
-0.058284233
-0.056993512
-0.055511772
-0.05385564
-0.05204342
-0.050094763
-0.048030316
-0.045871373
-0.043639478
-0.041355975
-0.039041643
-0.036716373
-0.034398873
-0.032106409
-0.029854605
-0.027657292
-0.025526408
-0.023471946
-0.021501958
-0.019622587
-0.017838146
-0.016151223
-0.014562811
-0.013072449
-0.011678372
-0.010377666
-0.0091663916
-0.0080397044
-0.0069918947
-0.006016384
-0.0051055868
-0.004250127
-0.0034408688
-0.0026536208
-0.0019142348
-0.0010135747
-0.00075661299
-0.047467817
-0.048577602
-0.049751294
-0.051055242
-0.052208551
-0.053117527
-0.053816519
-0.054328125
-0.054642769
-0.054747674
-0.05463941
-0.054320101
-0.053793403
-0.053064421
-0.052140656
-0.051032165
-0.049751216
-0.048311938
-0.046730069
-0.045022681
-0.043207848
-0.041304303
-0.039331077
-0.037307122
-0.035250979
-0.033180469
-0.031112419
-0.029062415
-0.027044615
-0.025071596
-0.02315425
-0.021301735
-0.019521455
-0.01781909
-0.016198654
-0.014662581
-0.013211831
-0.011846013
-0.010563502
-0.009361552
-0.0082363911
-0.0071832658
-0.0061963986
-0.0052689898
-0.0043921767
-0.0035580703
-0.0027430153
-0.0019760982
-0.0010582095
-0.00075299045
-0.040412499
-0.041546933
-0.042739478
-0.044044584
-0.045232018
-0.046222398
-0.047040936
-0.0477038
-0.048200772
-0.048518657
-0.04865175
-0.048598958
-0.048360562
-0.047938174
-0.047335558
-0.046558851
-0.04561633
-0.044518181
-0.043276323
-0.041904211
-0.040416572
-0.03882911
-0.037158202
-0.03542057
-0.033632962
-0.031811841
-0.029973101
-0.028131812
-0.026301989
-0.024496411
-0.022726473
-0.021002082
-0.019331598
-0.017721808
-0.016177942
-0.014703711
-0.01330138
-0.011971845
-0.010714729
-0.0095284684
-0.0084103799
-0.0073567084
-0.0063625658
-0.0054220054
-0.0045269446
-0.0036705355
-0.0028308366
-0.0020370323
-0.0011065085
-0.00074165087
-0.034073435
-0.035198201
-0.036376634
-0.037653438
-0.038840555
-0.039871247
-0.040763933
-0.041530005
-0.042159218
-0.042638546
-0.042960879
-0.043122834
-0.04312217
-0.042957762
-0.042630337
-0.042142715
-0.041499687
-0.040707882
-0.039775662
-0.038712998
-0.03753129
-0.036243136
-0.034862073
-0.03340232
-0.031878485
-0.030305281
-0.028697243
-0.027068477
-0.025432413
-0.023801595
-0.022187509
-0.020600435
-0.019049348
-0.017541848
-0.01608413
-0.014680982
-0.013335808
-0.01205068
-0.01082639
-0.0096625116
-0.0085574476
-0.0075084639
-0.0065116257
-0.0055619046
-0.0046521764
-0.0037765541
-0.0029153265
-0.0020962645
-0.0011544193
-0.00072934846
-0.02840053
-0.029492145
-0.030633555
-0.03186145
-0.033022846
-0.0340621
-0.034992634
-0.035822374
-0.036541514
-0.037137674
-0.037603067
-0.037932845
-0.038123026
-0.038170501
-0.038073666
-0.037832686
-0.037449455
-0.036927534
-0.036272117
-0.035489981
-0.034589366
-0.033579823
-0.032472019
-0.031277526
-0.030008594
-0.028677891
-0.027298256
-0.025882446
-0.024442902
-0.022991527
-0.021539493
-0.020097071
-0.018673493
-0.01727685
-0.01591402
-0.014590624
-0.013311015
-0.012078281
-0.010894273
-0.0097596302
-0.0086738054
-0.0076350843
-0.0066405229
-0.0056860619
-0.0047656404
-0.0038743219
-0.0029947125
-0.0021527527
-0.0011993338
-0.00072007798
-0.023343386
-0.024386888
-0.025476448
-0.026642132
-0.027760129
-0.028784444
-0.029724852
-0.030586795
-0.031361235
-0.03203677
-0.032605513
-0.033061825
-0.03340067
-0.033617627
-0.03370944
-0.033674275
-0.03351174
-0.033222883
-0.032810211
-0.032277692
-0.031630703
-0.030875942
-0.030021303
-0.029075715
-0.02804897
-0.026951521
-0.025794267
-0.024588323
-0.023344805
-0.022074613
-0.020788234
-0.019495558
-0.018205719
-0.016926965
-0.015666553
-0.014430671
-0.013224388
-0.012051625
-0.010915142
-0.0098165384
-0.0087562519
-0.0077335583
-0.0067465092
-0.0057920425
-0.0048652076
-0.0039620347
-0.0030673095
-0.0022053393
-0.0012399181
-0.00071524257
-0.018853195
-0.019840155
-0.020869379
-0.021965398
-0.023028683
-0.02402159
-0.024951211
-0.02582123
-0.026623563
-0.027347993
-0.027986943
-0.02853451
-0.028985156
-0.029333723
-0.029575898
-0.029708458
-0.02972932
-0.029637582
-0.02943358
-0.029118928
-0.028696525
-0.028170516
-0.027546228
-0.026830072
-0.026029419
-0.025152448
-0.024207987
-0.023205315
-0.022153972
-0.021063563
-0.019943572
-0.01880317
-0.01765106
-0.016495316
-0.015343267
-0.014201382
-0.013075199
-0.011969252
-0.010887037
-0.0098309759
-0.0088023919
-0.0078014902
-0.0068272906
-0.0058777258
-0.0049489582
-0.0040379996
-0.0031315999
-0.0022528788
-0.001275685
-0.00071438565
-0.014883806
-0.015810715
-0.01677598
-0.01779945
-0.018801848
-0.019752706
-0.020657134
-0.021517559
-0.022326925
-0.023076294
-0.023758667
-0.024368252
-0.024899428
-0.025346753
-0.025705355
-0.025971145
-0.026140888
-0.026212265
-0.026183954
-0.026055694
-0.025828335
-0.025503837
-0.025085261
-0.024576718
-0.023983298
-0.023310975
-0.022566478
-0.02175716
-0.020890834
-0.019975602
-0.019019691
-0.018031281
-0.01701834
-0.015988471
-0.014948775
-0.013905722
-0.012865053
-0.011831689
-0.010809659
-0.0098020434
-0.0088109243
-0.0078373439
-0.0068812294
-0.0059414743
-0.0050153217
-0.0041007639
-0.0031863042
-0.0022943368
-0.0013065482
-0.00071612402
-0.011393259
-0.012260142
-0.013161402
-0.014112856
-0.015052155
-0.015954981
-0.016824941
-0.017663551
-0.018464777
-0.019220958
-0.019925823
-0.020573936
-0.021159884
-0.021678276
-0.022124063
-0.022492717
-0.022780306
-0.022983566
-0.02309999
-0.023127908
-0.023066555
-0.022916111
-0.022677718
-0.022353482
-0.021946437
-0.021460502
-0.020900399
-0.020271561
-0.019580014
-0.018832245
-0.018035058
-0.01719543
-0.016320357
-0.015416712
-0.014491098
-0.013549723
-0.012598278
-0.011641831
-0.010684734
-0.0097305458
-0.0087819534
-0.0078407175
-0.0069075825
-0.0059823379
-0.0050632469
-0.0041492597
-0.0032304549
-0.002328871
-0.0013325172
-0.00071892442
-0.0083437027
-0.009153218
-0.0099931254
-0.010875744
-0.011752882
-0.012605471
-0.013435952
-0.014245154
-0.015028001
-0.015778042
-0.01648979
-0.017158303
-0.017778554
-0.018345432
-0.018853982
-0.01929956
-0.019677898
-0.01998518
-0.020218122
-0.020374064
-0.020451044
-0.020447858
-0.020364101
-0.020200202
-0.019957424
-0.019637858
-0.019244383
-0.018780614
-0.018250827
-0.01765987
-0.017013045
-0.016315999
-0.015574588
-0.014794754
-0.013982388
-0.0131432
-0.0122826
-0.011405581
-0.010516607
-0.0096195239
-0.0087174597
-0.007812753
-0.0069068506
-0.0060003461
-0.0050924402
-0.0041829926
-0.003263511
-0.0023559249
-0.001353602
-0.00072155983
-0.0057029759
-0.006459323
-0.0072422034
-0.0080608396
-0.0088788822
-0.0096817224
-0.01047088
-0.011246641
-0.012004788
-0.012739972
-0.013447476
-0.01412291
-0.014761725
-0.015359217
-0.015910706
-0.016411651
-0.016857721
-0.017244844
-0.017569296
-0.017827778
-0.018017498
-0.018136234
-0.018182395
-0.01815507
-0.018054061
-0.017879897
-0.017633839
-0.017317856
-0.016934593
-0.016487315
-0.01597983
-0.015416406
-0.01480167
-0.014140503
-0.01343792
-0.012698958
-0.011928549
-0.011131411
-0.01031193
-0.0094740517
-0.0086211776
-0.0077560742
-0.0068807587
-0.0059965187
-0.0051033881
-0.0042020682
-0.0032853648
-0.0023752393
-0.0013697991
-0.00072322378
-0.0034458018
-0.004154775
-0.0048865803
-0.0056477904
-0.006411894
-0.0071680204
-0.0079169396
-0.0086584957
-0.0093892096
-0.0101047
-0.010800964
-0.011474152
-0.012120223
-0.012734932
-0.013313969
-0.013853039
-0.014347918
-0.014794503
-0.015188876
-0.015527383
-0.015806704
-0.016023918
-0.016176574
-0.016262744
-0.016281075
-0.016230828
-0.016111902
-0.015924843
-0.015670842
-0.01535171
-0.014969847
-0.014528181
-0.014030099
-0.01347937
-0.01288005
-0.01223638
-0.011552681
-0.010833242
-0.010082206
-0.0093034593
-0.0085005192
-0.0076764309
-0.0068336459
-0.0059740191
-0.0050983038
-0.0042079499
-0.0032969338
-0.0023873071
-0.0013814793
-0.00072366717
-0.0015479244
-0.002215342
-0.0029022883
-0.003612937
-0.0043288944
-0.0050424192
-0.0057536705
-0.0064621185
-0.0071648962
-0.0078584443
-0.0085393861
-0.0092043721
-0.0098498409
-0.01047201
-0.011066965
-0.011630727
-0.012159281
-0.012648629
-0.013094833
-0.013494086
-0.013842773
-0.014137532
-0.014375321
-0.01455348
-0.014669788
-0.014722515
-0.014710462
-0.014632997
-0.014490074
-0.014282239
-0.014010621
-0.013676911
-0.013283316
-0.012832513
-0.012327577
-0.011771907
-0.011169126
-0.010522994
-0.0098372903
-0.0091157113
-0.0083617532
-0.0075786044
-0.0067690152
-0.0059352816
-0.0050787492
-0.0042015119
-0.0032985798
-0.0023920992
-0.0013884188
-0.00072245767
-1.3191372e-05
-0.0006468378
-0.001296937
-0.0019658953
-0.0026417882
-0.0033193364
-0.0039981948
-0.00467753
-0.0053549652
-0.0060276069
-0.0066925964
-0.0073470101
-0.0079877078
-0.0086113229
-0.0092143213
-0.0097930411
-0.010343722
-0.010862534
-0.011345627
-0.011789173
-0.012189426
-0.012542777
-0.012845813
-0.013095379
-0.013288638
-0.01342313
-0.013496824
-0.013508165
-0.013456113
-0.013340166
-0.013160385
-0.012917389
-0.01261235
-0.012246955
-0.011823371
-0.011344183
-0.010812327
-0.010230998
-0.0096035657
-0.0089334598
-0.0082240652
-0.0074786097
-0.0067000296
-0.0058909428
-0.0050531632
-0.0041893103
-0.0032952813
-0.0023932775
-0.0013931923
-0.00072092726
0.0012000665
0.00059417955
-2.5773941e-05
-0.00066055884
-0.0013033159
-0.001950738
-0.0026020889
-0.0032562794
-0.0039113038
-0.0045647874
-0.0052142819
-0.005857207
-0.0064907679
-0.0071119469
-0.0077175384
-0.0083041701
-0.0088683266
-0.0094063704
-0.0099145784
-0.010389179
-0.010826398
-0.011222509
-0.011573887
-0.011877064
-0.012128792
-0.012326099
-0.012466352
-0.012547309
-0.01256717
-0.012524624
-0.012418881
-0.012249691
-0.012017354
-0.011722713
-0.011367139