/*--------------------------------*- C++ -*----------------------------------*\
  =========                 |
  \\      /  F ield         | OpenFOAM: The Open Source CFD Toolbox
   \\    /   O peration     | Website:  https://openfoam.org
    \\  /    A nd           | Version:  6
     \\/     M anipulation  |
\*---------------------------------------------------------------------------*/
FoamFile
{
    version     2.0;
    format      ascii;
    class       volVectorField;
    location    "64";
    object      U;
}
// * * * * * * * * * * * * * * * * * * * * * * * * * * * * * * * * * * * * * //

dimensions      [0 1 -1 0 0 0 0];

internalField   nonuniform List<vector> 
9200
(
(0.0010474419 0.0014156813 -5.9264201e-20)
(0.013711193 -0.0020770098 4.6098715e-20)
(0.038389315 -0.0058992112 -3.8545989e-20)
(0.072402788 -0.0098103182 -6.0324454e-20)
(0.11395451 -0.013551379 1.8850897e-20)
(0.16183985 -0.016681723 3.2782494e-20)
(0.21500593 -0.018908146 -1.2284809e-20)
(0.27248067 -0.020079649 9.2819195e-21)
(0.33335381 -0.020132075 1.6821127e-20)
(0.39674494 -0.01906534 1.4865946e-21)
(0.46177962 -0.016932074 -2.148456e-20)
(0.52757998 -0.013826721 2.0698332e-20)
(0.59326697 -0.0098747219 -4.047422e-20)
(0.65797268 -0.0052214799 -2.1166161e-20)
(0.72086101 -2.0592025e-05 5.9131387e-21)
(0.78115439 0.0055758388 -2.5175356e-20)
(0.83817986 0.011440646 2.5266314e-20)
(0.89149381 0.017620362 2.2309108e-20)
(0.94069751 0.024247403 -2.8652147e-22)
(0.98306905 0.027941548 -1.652893e-21)
(0.0052659224 -0.0013536987 -1.7077257e-20)
(0.027014551 -0.0090153943 3.979309e-20)
(0.061774726 -0.014852662 2.3603102e-20)
(0.10646317 -0.019230436 -1.1581685e-19)
(0.15897635 -0.022286785 -1.274215e-20)
(0.21785344 -0.023807516 7.3370737e-20)
(0.28177683 -0.023695522 -3.5515307e-20)
(0.34949629 -0.021982782 -8.3996045e-21)
(0.41981586 -0.018772826 3.4327667e-20)
(0.49156985 -0.014222063 -4.3313939e-20)
(0.56361119 -0.0085318917 -3.0381577e-20)
(0.63481793 -0.0019384202 7.2034755e-20)
(0.70411309 0.0052991786 3.8353292e-20)
(0.77049369 0.01291024 -6.8096139e-20)
(0.83306468 0.020622535 1.4653591e-20)
(0.89107235 0.028166953 -3.6807346e-20)
(0.94394611 0.035291705 -1.3798821e-20)
(0.99139972 0.041835767 7.1150223e-20)
(1.0333006 0.047381963 2.9748567e-20)
(1.0678469 0.04878135 -8.3591997e-20)
(0.010878995 -0.0040525413 3.6808625e-20)
(0.044025282 -0.015463711 2.5068554e-21)
(0.090652354 -0.022602858 2.2367542e-20)
(0.14732365 -0.026563169 9.8211429e-22)
(0.21163758 -0.027965729 -4.0822063e-20)
(0.28185042 -0.026886944 1.8592821e-20)
(0.35634304 -0.023486163 1.3436039e-20)
(0.43355184 -0.018036314 -5.038425e-20)
(0.51197186 -0.010862065 5.7331159e-20)
(0.5901517 -0.0023227917 1.4279776e-20)
(0.66670353 0.007195104 -5.438447e-20)
(0.74033143 0.01729171 -1.8272876e-20)
(0.80986976 0.027570036 9.0538644e-21)
(0.87432399 0.037652341 2.349093e-20)
(0.93290703 0.04719424 -1.1390302e-20)
(0.98506411 0.05589398 2.7935162e-20)
(1.0304876 0.063506989 -2.0226178e-20)
(1.0691493 0.069893429 -7.0287953e-20)
(1.1011783 0.07477907 -2.3860753e-20)
(1.125713 0.076274474 4.8737191e-20)
(0.017985732 -0.006434337 2.4529744e-20)
(0.064871219 -0.020731634 5.108798e-20)
(0.12502455 -0.028115678 1.9899953e-20)
(0.19472852 -0.030532873 1.2998947e-20)
(0.2713 -0.029175242 1.7290319e-20)
(0.35269337 -0.024479372 -4.7767568e-20)
(0.43696854 -0.016925553 -2.5674611e-20)
(0.52224502 -0.0070854918 0)
(0.60673351 0.0044480832 1.3951259e-20)
(0.68875999 0.017081015 -5.8727325e-21)
(0.76680275 0.030229171 -9.8083148e-20)
(0.83954122 0.043338129 -1.5790915e-20)
(0.90590489 0.055905417 6.5231895e-20)
(0.96511204 0.067500313 4.6903446e-22)
(1.0166914 0.077778604 -1.5757943e-21)
(1.0604818 0.086490202 2.2003941e-20)
(1.0966109 0.093486597 -5.2797783e-21)
(1.1254729 0.098749795 -6.1160662e-20)
(1.1476117 0.10225175 -4.5960369e-20)
(1.1629949 0.10304108 6.963898e-20)
(0.026616854 -0.0082190229 -3.9216468e-21)
(0.089462504 -0.024071904 -5.1294629e-21)
(0.16451695 -0.030319936 5.6648616e-20)
(0.24788739 -0.029876481 1.8554587e-20)
(0.33664662 -0.024588198 -3.1984811e-20)
(0.42845339 -0.015322172 1.2175186e-20)
(0.52106632 -0.0029404459 2.6433168e-21)
(0.61233955 0.011640429 3.3655846e-20)
(0.70029279 0.027534034 5.6680764e-21)
(0.78316858 0.043910527 -1.3233062e-20)
(0.85949202 0.060014093 6.0274299e-20)
(0.92812749 0.075187944 -5.8098485e-20)
(0.9883188 0.088898017 -1.324101e-19)
(1.0397036 0.10074883 -5.5881725e-21)
(1.0822986 0.11048916 8.3322937e-20)
(1.1164573 0.11800683 0)
(1.1428053 0.12331862 1.0137253e-20)
(1.1621721 0.12657354 -1.5492403e-20)
(1.1754767 0.1279529 -8.6186214e-21)
(1.1832808 0.1270767 2.103058e-20)
(0.036713963 -0.0091029663 -5.4315481e-21)
(0.11745889 -0.024722215 4.3614188e-21)
(0.20836552 -0.028190613 -8.7700839e-21)
(0.30550909 -0.023473392 2.8496184e-20)
(0.40579067 -0.013139306 -2.9421815e-20)
(0.50662379 0.0014546369 -1.69453e-20)
(0.60554408 0.019022337 3.739583e-20)
(0.70026189 0.038285641 4.7612754e-21)
(0.78877289 0.058078119 -2.4486365e-20)
(0.86944166 0.077379737 6.9976634e-20)
(0.94106761 0.095337512 5.1022045e-22)
(1.0029263 0.11128859 -8.0599929e-20)
(1.054775 0.12477464 0)
(1.0968202 0.13554132 3.9626041e-20)
(1.1296504 0.14352273 5.5361594e-21)
(1.1541454 0.14881316 -7.77194e-20)
(1.1713729 0.15163373 -1.9625068e-20)
(1.182492 0.1523099 -1.2492057e-20)
(1.1886461 0.15118577 -1.4739264e-20)
(1.1906933 0.14822029 4.0498021e-20)
(0.048115895 -0.0087795558 -1.7288065e-20)
(0.14825217 -0.021963902 -2.2289601e-21)
(0.25542355 -0.020838932 3.0401335e-20)
(0.36585812 -0.010457612 3.7509086e-20)
(0.47640316 0.0058550834 -1.9962648e-20)
(0.58433531 0.026221009 -6.9241909e-20)
(0.68711345 0.048925165 -2.8037014e-20)
(0.78249493 0.072358548 7.9036199e-20)
(0.86867687 0.095141619 8.6008318e-21)
(0.94438659 0.11616232 -2.4905959e-20)
(1.0089275 0.13458991 1.3652515e-20)
(1.0621769 0.14988215 -4.3319214e-21)
(1.1045346 0.16177519 0)
(1.1368291 0.17025314 2.7252254e-20)
(1.1601968 0.17550173 -7.9467014e-20)
(1.1759524 0.17785274 -3.1533119e-20)
(1.1854654 0.1777291 8.1203595e-20)
(1.1900606 0.17560447 -4.3081138e-21)
(1.1909344 0.17192708 3.5616565e-21)
(1.1890059 0.16684314 2.7166667e-20)
(0.060552182 -0.0069668857 -3.2432826e-20)
(0.18097091 -0.015193852 -8.1687326e-20)
(0.30420505 -0.0076106113 2.5712512e-21)
(0.42685635 0.009677246 7.0226604e-20)
(0.54588549 0.032607108 6.2486567e-20)
(0.65860249 0.058795509 -7.1641459e-20)
(0.76259898 0.086148202 -2.7113637e-22)
(0.85592114 0.11281522 8.5653012e-20)
(0.93721897 0.13732691 4.8899065e-20)
(1.0058148 0.15862242 -5.4308759e-20)
(1.0616998 0.17603987 -9.2486142e-20)
(1.1054661 0.18928984 -3.1642612e-21)
(1.1381859 0.19840579 4.2198907e-20)
(1.1612599 0.20367442 -6.6174603e-21)
(1.1762574 0.20555626 -1.2890193e-20)
(1.1847706 0.20460717 1.9721795e-20)
(1.188298 0.20141121 4.3956421e-20)
(1.188166 0.19653503 -4.3932892e-20)
(1.1854847 0.19046754 -1.0250534e-19)
(1.1810863 0.18344417 2.4618085e-20)
(0.073613494 -0.0034384631 -3.5008301e-20)
(0.21444181 -0.0040007483 -1.7398562e-19)
(0.35286047 0.011830486 8.2185034e-20)
(0.48608782 0.037015167 9.2856219e-20)
(0.61141274 0.066836824 5.8026359e-20)
(0.72640529 0.098483079 8.621458e-21)
(0.82904315 0.12959392 -1.0636953e-19)
(0.91791989 0.15822825 0)
(0.99237117 0.18299587 -6.8863256e-20)
(1.0524914 0.20305637 -1.5230367e-20)
(1.099059 0.2180653 5.4789886e-20)
(1.1333924 0.2280974 1.0991869e-20)
(1.1571675 0.23354826 -4.5686656e-20)
(1.1722256 0.23502488 -4.9158293e-20)
(1.1804017 0.23324032 2.4329052e-20)
(1.1833907 0.22892427 4.4899502e-20)
(1.1826618 0.22275778 -5.5694339e-20)
(1.1794194 0.21533585 -1.0768916e-19)
(1.1746038 0.20713212 -3.1510747e-21)
(1.16889 0.19841293 2.7091089e-20)
(0.086734986 0.00196125 -3.5542852e-21)
(0.24719331 0.011819587 8.7980165e-20)
(0.39921324 0.037505053 -1.6451169e-20)
(0.54088479 0.07124129 -8.4408157e-20)
(0.67007204 0.10781822 4.5215326e-20)
(0.78486193 0.14414499 4.9218437e-20)
(0.88387717 0.17777909 5.5432902e-21)
(0.96648903 0.20689255 -9.9637784e-20)
(1.0328892 0.23037412 -2.5085834e-21)
(1.0840324 0.24777483 5.0581749e-20)
(1.1214817 0.25919223 5.994914e-21)
(1.1471985 0.26513403 -1.9748062e-20)
(1.1633183 0.26637224 -7.5819841e-20)
(1.1719485 0.26380397 -6.2627083e-21)
(1.1750144 0.25833549 4.3598263e-20)
(1.1741618 0.25079851 3.7076886e-20)
(1.1707172 0.24190097 1.9818822e-20)
(1.165694 0.23220788 -5.3091149e-20)
(1.1598325 0.22213772 1.2960906e-20)
(1.1536357 0.21195778 8.2783216e-20)
(-0.0012949094 0.0014364809 -1.1237182e-21)
(-0.0047518101 0.0031912023 2.0667937e-21)
(-0.010784069 0.00414055 8.8368562e-22)
(-0.017774478 0.0045443315 -2.439838e-21)
(-0.024767445 0.0045698884 -1.4165386e-21)
(-0.031332607 0.0043298611 1.5512254e-21)
(-0.037198864 0.0039064854 -6.8849231e-21)
(-0.042187927 0.0033596329 -5.9702603e-21)
(-0.046199501 0.0027321362 1.1195386e-20)
(-0.04918736 0.0020543331 -9.7632716e-21)
(-0.051139413 0.0013474664 -1.9849289e-22)
(-0.052064878 0.00062617086 3.6757889e-21)
(-0.051985878 -9.9640233e-05 -6.3410509e-22)
(-0.050931695 -0.00082326957 2.2871227e-20)
(-0.048935157 -0.001539869 3.0408422e-22)
(-0.046032092 -0.0022449862 -4.0983e-20)
(-0.042263641 -0.0029339749 7.5587962e-21)
(-0.037668003 -0.0036047515 2.3925266e-20)
(-0.032253419 -0.0042558208 -4.396876e-20)
(-0.026079206 -0.0048390806 -2.7814809e-20)
(-0.0016542178 0.0041860805 -5.3799985e-21)
(-0.0054037796 0.0092789516 1.0875561e-20)
(-0.01123094 0.012020663 -1.0205765e-20)
(-0.017676682 0.013167333 3.9339112e-21)
(-0.02388039 0.013207951 4.8249083e-21)
(-0.029461199 0.012473278 7.1488596e-22)
(-0.03418246 0.011204918 -2.2557721e-20)
(-0.037890909 0.0095786763 -2.0409632e-21)
(-0.040503216 0.0077202836 2.0204474e-20)
(-0.041984119 0.005718755 -5.0577132e-21)
(-0.042328238 0.0036363637 -2.1808474e-20)
(-0.041548447 0.0015159435 4.9077803e-21)
(-0.039668294 -0.00061359203 2.2682961e-20)
(-0.03671669 -0.0027328318 1.0331608e-20)
(-0.032724121 -0.0048278356 2.1906765e-20)
(-0.027723071 -0.0068860432 -1.9817912e-20)
(-0.021757741 -0.0088944666 -2.172526e-20)
(-0.0148754 -0.010846519 2.1241188e-20)
(-0.0070111224 -0.012727667 2.6879083e-20)
(0.0020232322 -0.014372241 1.5892779e-20)
(-0.0023060703 0.0065681498 -4.3635275e-21)
(-0.0065461784 0.01449649 -5.6427913e-21)
(-0.011903743 0.01873032 3.0679708e-22)
(-0.017226473 0.020448244 1.0931791e-21)
(-0.021836633 0.0204185 6.7031754e-21)
(-0.025448655 0.019166441 1.068305e-20)
(-0.027892738 0.017076595 -3.7300359e-21)
(-0.029064255 0.01442885 -1.8931225e-20)
(-0.028912949 0.01142359 6.5539331e-21)
(-0.027425215 0.0082028335 1.2887688e-20)
(-0.024609348 0.0048659703 5.8474839e-21)
(-0.020486313 0.0014812918 1.8194494e-20)
(-0.015083746 -0.0019053664 1.7332301e-21)
(-0.0084315731 -0.0052637509 -3.3935309e-20)
(-0.00055820119 -0.0085725928 1.2073505e-21)
(0.0085079876 -0.011813088 -2.2183542e-20)
(0.018715655 -0.014967623 -2.4527529e-20)
(0.029996371 -0.018027402 4.5934399e-20)
(0.042538687 -0.020939387 2.5417099e-20)
(0.057017904 -0.023342444 1.2793634e-22)
(-0.0031323479 0.008378568 -5.2918336e-21)
(-0.0079038202 0.018355979 -8.5030715e-21)
(-0.012448842 0.023611111 4.3649546e-21)
(-0.016036586 0.025632773 4.1531803e-21)
(-0.018242632 0.025402885 2.0133676e-21)
(-0.01891497 0.023604523 7.3345399e-21)
(-0.01797874 0.020739132 9.3290967e-21)
(-0.015399289 0.01717186 -1.3536648e-21)
(-0.011174904 0.013164618 -1.1502415e-20)
(-0.0053249626 0.0089033968 -2.9125499e-20)
(0.0021200383 0.0045184755 6.2949145e-23)
(0.011123755 9.9358574e-05 4.0775027e-20)
(0.021648581 -0.0042944637 -1.8416148e-20)
(0.033657231 -0.0086242546 -1.2320633e-20)
(0.047116954 -0.012864014 5.5119364e-22)
(0.06199776 -0.016992816 3.2372781e-20)
(0.078236137 -0.020995882 -1.4868634e-20)
(0.095725003 -0.024871663 -5.3457e-20)
(0.11478549 -0.028502773 4.5866863e-20)
(0.13679471 -0.031210443 3.3088893e-20)
(-0.0039742235 0.0094758262 -6.8734695e-22)
(-0.0090988528 0.020507711 -1.2552126e-20)
(-0.012371106 0.026182299 -3.4199744e-20)
(-0.013554807 0.028165368 -5.7355763e-21)
(-0.012527321 0.027572683 -3.6255637e-21)
(-0.0092987607 0.025199117 6.3155792e-21)
(-0.0039117194 0.021630197 -4.6542298e-21)
(0.0035800081 0.017292243 -8.8211839e-21)
(0.013114737 0.01249156 2.1935105e-20)
(0.024627381 0.0074459604 5.0637608e-21)
(0.03805419 0.0023084042 -2.5337265e-20)
(0.053332991 -0.0028159914 1.1096134e-20)
(0.070403771 -0.0078574748 0)
(0.089209362 -0.012772001 1.2111844e-20)
(0.10969864 -0.017532459 -9.7200206e-21)
(0.13182557 -0.022121077 -1.4367147e-20)
(0.15550165 -0.026536351 -1.5679642e-21)
(0.18055874 -0.030804671 -2.226312e-21)
(0.20741242 -0.034740294 4.6232808e-20)
(0.23829903 -0.037201538 -1.0505119e-20)
(-0.0046489785 0.0097902782 -7.5448822e-21)
(-0.0096829899 0.020765497 2.4552775e-20)
(-0.011065723 0.026180387 -1.0516597e-20)
(-0.0090883153 0.027741111 -2.7509318e-20)
(-0.0039562574 0.026612317 -2.7585478e-20)
(0.0041395389 0.023650593 -1.4943524e-20)
(0.015022276 0.019488442 -6.9173195e-22)
(0.028533981 0.014585142 5.5576842e-21)
(0.044535379 0.0092712603 1.9643628e-20)
(0.062902093 0.0037826964 7.3641907e-21)
(0.083520164 -0.00171482 -7.1966355e-21)
(0.10628395 -0.0071074136 -2.0110036e-21)
(0.13109248 -0.012320128 -3.8255242e-20)
(0.15784697 -0.017307385 -1.2715174e-20)
(0.18645265 -0.022044729 1.8788539e-20)
(0.21681973 -0.026522867 -2.1063512e-20)
(0.24881133 -0.030764388 -8.9901076e-21)
(0.28217206 -0.034852846 3.0490965e-20)
(0.31733726 -0.038568382 5.0561732e-20)
(0.35746416 -0.040188635 3.3632315e-21)
(-0.0049650792 0.0093217134 1.68024e-20)
(-0.0091688164 0.019110569 1.4484677e-20)
(-0.0078527145 0.02357562 5.1213462e-20)
(-0.0018356136 0.024336368 2.342144e-20)
(0.0083412718 0.022523214 1.8278353e-22)
(0.022296126 0.019003499 -3.944322e-20)
(0.03970606 0.014418006 -2.4347809e-20)
(0.060296579 0.0092300513 1.0479381e-20)
(0.083833325 0.0037724609 1.4421172e-20)
(0.11011177 -0.0017174444 -1.3129518e-20)
(0.13894674 -0.0070733559 -4.4103641e-20)
(0.17016376 -0.012182165 2.9663621e-20)
(0.20359164 -0.016971188 2.0048553e-20)
(0.23905673 -0.021399458 -2.7594709e-20)
(0.27638282 -0.025451009 1.1670792e-20)
(0.31539473 -0.029131617 2.4238091e-20)
(0.35587019 -0.032498047 8.088119e-21)
(0.39743759 -0.035723091 -1.1789633e-20)
(0.44045906 -0.03863188 -1.4208432e-20)
(0.4889482 -0.038896856 5.9034903e-21)
(-0.0047327158 0.0081289007 1.1107801e-20)
(-0.007055779 0.015677349 -2.3387628e-20)
(-0.0020114221 0.01856449 8.627087e-21)
(0.0090741369 0.018211386 3.3633633e-20)
(0.025329153 0.015636239 5.2192023e-20)
(0.046177278 0.01166858 2.0302849e-20)
(0.071140159 0.0069202906 -5.8723471e-21)
(0.099808442 0.0018274659 -1.2300644e-20)
(0.13183208 -0.0032984724 -6.215458e-21)
(0.16690083 -0.0082375484 3.4286446e-20)
(0.20472631 -0.012838576 -4.5200854e-21)
(0.2450281 -0.017002513 -1.6668732e-20)
(0.28752267 -0.020670767 -1.9719885e-20)
(0.33191529 -0.023817915 -4.7515894e-20)
(0.37789877 -0.026447105 2.3274336e-20)
(0.42516103 -0.028590111 -1.4119461e-20)
(0.47335109 -0.030351067 2.6041235e-20)
(0.5219629 -0.032028361 2.1078135e-20)
(0.57121104 -0.033618831 -8.5688005e-20)
(0.62577299 -0.03235144 -1.0120046e-22)
(-0.0037706985 0.0063168642 2.1949978e-20)
(-0.0028550541 0.01073332 -2.6201131e-20)
(0.0071751427 0.011555117 -4.5068545e-20)
(0.024515385 0.0099060695 -2.7288407e-20)
(0.04797657 0.0066213398 -2.0465145e-21)
(0.076782668 0.0024460382 1.3063963e-20)
(0.11028594 -0.00207474 -2.8353575e-21)
(0.14792283 -0.0065629098 1.8139513e-20)
(0.18919888 -0.010754907 8.8776775e-21)
(0.23366181 -0.014470871 -1.1393868e-20)
(0.28087713 -0.017595058 8.8930959e-21)
(0.33041017 -0.020061187 -2.3935119e-20)
(0.38181289 -0.021841987 8.0651045e-21)
(0.43461485 -0.022942738 1.6781936e-20)
(0.48832161 -0.023397427 -2.6434754e-21)
(0.54242426 -0.023270955 1.663916e-21)
(0.59638219 -0.022714989 -3.1786716e-22)
(0.64952724 -0.022137447 1.9623535e-20)
(0.70188492 -0.021735048 4.0498137e-21)
(0.75855636 -0.018813707 -6.082235e-22)
(-0.0019073603 0.0040263262 2.3721467e-20)
(0.0038907917 0.0046662642 5.7234474e-20)
(0.020367569 0.0031669225 -4.9302934e-20)
(0.045272129 0.00026110582 -9.9573636e-21)
(0.07710964 -0.0034710711 2.0278685e-20)
(0.11489936 -0.0074150236 2.1457707e-21)
(0.15780758 -0.011131558 -2.9848072e-20)
(0.20508856 -0.01433641 6.9909589e-21)
(0.25606594 -0.016846318 7.1204927e-21)
(0.31010072 -0.018551917 -2.6287085e-20)
(0.36656383 -0.019402137 1.2949875e-21)
(0.42481843 -0.019391585 -3.7224734e-20)
(0.48420962 -0.01855032 -3.6393876e-20)
(0.5440603 -0.016935643 6.5786464e-20)
(0.6036731 -0.014624897 5.5723043e-21)
(0.6623365 -0.011714792 -1.5220672e-20)
(0.7193088 -0.0083632819 1.9395668e-20)
(0.7737425 -0.0048773284 -9.2042349e-22)
(0.8251621 -0.0012768988 2.0380673e-20)
(0.87730888 0.0039932068 -1.9607337e-20)
(-0.018730966 -0.0051191178 5.8518163e-20)
(-0.010085364 -0.0056564694 1.5826125e-20)
(-4.2678349e-05 -0.0060925021 -3.5240324e-20)
(0.011045956 -0.0063595137 1.6844603e-20)
(0.0229142 -0.0065391329 0)
(0.035503587 -0.0066588221 0)
(0.048754581 -0.0067212903 -2.3051524e-20)
(0.062587653 -0.0067343711 -1.6557984e-20)
(0.076932573 -0.0067074582 1.9194047e-20)
(0.091730046 -0.0066473465 1.8241968e-20)
(0.10692533 -0.006559231 1.0552179e-21)
(0.12246686 -0.0064476798 -1.0354992e-20)
(0.13830659 -0.0063166579 8.3658182e-21)
(0.15439958 -0.0061695196 1.8303042e-20)
(0.1707034 -0.0060091359 -5.2569756e-21)
(0.18717774 -0.0058380006 -1.0214481e-20)
(0.20378422 -0.0056582939 -4.3364984e-21)
(0.22048625 -0.0054719348 -4.4393407e-21)
(0.2372489 -0.0052806256 7.3812765e-22)
(0.25403883 -0.0050858878 1.2350474e-21)
(0.27082433 -0.0048890882 2.5852377e-21)
(0.28757532 -0.0046914589 6.6902079e-21)
(0.30426339 -0.0044941124 2.4134924e-22)
(0.32086191 -0.004298052 -3.4740031e-21)
(0.33734606 -0.0041041798 1.5442567e-22)
(0.35369291 -0.003913303 -5.814888e-22)
(0.36988153 -0.0037261379 1.2537997e-21)
(0.38589299 -0.0035433146 1.0574789e-21)
(0.40171046 -0.0033653802 -1.3208559e-21)
(0.41731925 -0.003192803 -1.2121771e-22)
(0.43270681 -0.0030259767 2.324398e-23)
(0.44786277 -0.0028652251 -3.5735821e-22)
(0.46277895 -0.0027108074 -4.1946452e-22)
(0.4774494 -0.0025629235 6.4887036e-23)
(0.49187037 -0.0024217208 -1.4168814e-22)
(0.50604037 -0.0022873005 -2.2862316e-22)
(0.51996017 -0.0021597251 2.6333108e-22)
(0.53363296 -0.0020390258 3.0549938e-22)
(0.5470642 -0.0019252135 -1.592819e-23)
(0.56026244 -0.0018182815 -1.7412285e-22)
(0.57323768 -0.0017182441 2.9963535e-23)
(0.58600745 -0.0016250697 -4.1888896e-23)
(0.59857995 -0.0015389759 1.0709966e-22)
(0.61100754 -0.0014596296 1.6852164e-23)
(0.62323241 -0.0013888467 -1.5763356e-22)
(0.63554493 -0.001322692 -9.1061781e-24)
(0.64727475 -0.0012763363 2.2794953e-24)
(0.66054811 -0.0012112454 -9.323824e-24)
(0.66973298 -0.0012523723 2.8215235e-23)
(0.69045085 -0.0011037087 4.2332695e-22)
(0.010627843 -0.015076847 -1.2788231e-20)
(0.018396263 -0.016706394 -6.3477263e-20)
(0.028036483 -0.017986879 -3.0637935e-20)
(0.038688161 -0.018748714 3.859517e-20)
(0.049974083 -0.019265111 1.4709673e-20)
(0.06191449 -0.019615757 -1.8271013e-20)
(0.074480497 -0.019800824 4.696653e-21)
(0.087595389 -0.019841885 2.5532407e-20)
(0.10119631 -0.019766935 8.38845e-23)
(0.11523327 -0.019595461 -7.690857e-21)
(0.12965839 -0.019342079 -1.3055848e-20)
(0.14442532 -0.019019857 -8.5650578e-21)
(0.15949044 -0.018640228 1.7839542e-20)
(0.17481253 -0.018212872 8.9921133e-21)
(0.19035216 -0.017746092 -1.6573438e-20)
(0.20607151 -0.017247137 -6.0633701e-21)
(0.22193423 -0.016722374 3.2233648e-21)
(0.23790538 -0.016177425 8.3994714e-21)
(0.25395141 -0.015617301 7.0187652e-21)
(0.27004012 -0.015046494 -7.0224991e-21)
(0.28614071 -0.014469055 -3.2061027e-21)
(0.30222386 -0.013888646 1.3880448e-21)
(0.31826179 -0.01330858 4.1475321e-22)
(0.33422834 -0.012731854 1.2259668e-21)
(0.35009907 -0.012161168 1.9134498e-22)
(0.36585136 -0.011598942 -3.3578551e-22)
(0.38146446 -0.011047329 -7.3705407e-22)
(0.39691957 -0.010508224 9.9949101e-22)
(0.41219991 -0.0099832774 8.4576216e-22)
(0.42729074 -0.0094739065 -1.7300688e-22)
(0.44217942 -0.0089813048 5.7305067e-22)
(0.45685545 -0.0085064582 -2.4252057e-22)
(0.47131042 -0.0080501592 -3.9031746e-22)
(0.48553814 -0.0076130242 -6.3479591e-22)
(0.49953453 -0.0071955117 4.53194e-22)
(0.51329778 -0.0067979422 -3.8718063e-23)
(0.52682826 -0.0064205207 1.858549e-22)
(0.54012874 -0.0060633575 -4.8012914e-22)
(0.55320425 -0.0057265031 4.2517219e-22)
(0.56606285 -0.0054099535 7.229434e-23)
(0.57871408 -0.0051137692 -1.0295622e-22)
(0.59117491 -0.0048378722 2.1549415e-22)
(0.60345311 -0.0045829318 2.9568412e-22)
(0.61560019 -0.0043479676 2.2535884e-22)
(0.62755866 -0.0041384278 2.3862785e-22)
(0.63961539 -0.0039425705 -3.7972507e-23)
(0.65110786 -0.0038056974 1.5224462e-22)
(0.66413521 -0.0036128874 1.4580679e-22)
(0.67313997 -0.0037362854 -2.9115877e-22)
(0.69352106 -0.0032955501 -2.6196218e-23)
(0.067936255 -0.024130494 9.4814797e-21)
(0.073947174 -0.026859928 3.3109503e-21)
(0.082666067 -0.028926039 -1.2215786e-20)
(0.092396606 -0.0300971 -1.2371837e-21)
(0.1024838 -0.030904115 1.5025849e-20)
(0.1131029 -0.031474742 -1.4935847e-20)
(0.12429322 -0.031787296 -2.9951817e-20)
(0.13597963 -0.031871304 1.4553171e-20)
(0.14811036 -0.031772753 1.8256431e-20)
(0.16065272 -0.031521769 -1.1647028e-20)
(0.17357134 -0.031139916 1.0229241e-21)
(0.18682883 -0.030647039 8.701904e-21)
(0.20038924 -0.030060859 -1.5325728e-20)
(0.21421778 -0.029396434 2.960619e-21)
(0.22828021 -0.028666742 7.5625641e-21)
(0.2425429 -0.027883211 1.6708153e-24)
(0.25697292 -0.027055969 2.4677103e-22)
(0.2715381 -0.026194038 -7.4660648e-21)
(0.28620715 -0.02530551 3.9217493e-21)
(0.3009497 -0.024397697 8.5397955e-21)
(0.31573645 -0.023477227 -3.8656339e-21)
(0.33053929 -0.022550127 -2.2258457e-21)
(0.34533138 -0.021621876 1.0088906e-21)
(0.36008735 -0.020697449 -1.737406e-21)
(0.37478333 -0.019781346 1.362629e-21)
(0.38939709 -0.018877612 7.2395047e-22)
(0.40390816 -0.017989857 1.5817079e-21)
(0.41829786 -0.017121275 -2.0123362e-21)
(0.43254941 -0.016274654 2.2976528e-21)
(0.44664796 -0.015452397 5.6909322e-22)
(0.46058065 -0.014656541 4.4826107e-22)
(0.47433663 -0.013888778 3.2629938e-22)
(0.48790709 -0.013150483 9.2842405e-22)
(0.50128531 -0.012442737 -1.4598218e-21)
(0.51446663 -0.01176636 4.0050559e-22)
(0.52744856 -0.011121943 1.4123711e-22)
(0.54023076 -0.010509885 -5.6453103e-23)
(0.55281521 -0.0099304273 7.4061031e-23)
(0.5652061 -0.0093837111 -4.118263e-22)
(0.57741062 -0.0088697868 2.1353729e-22)
(0.58943738 -0.0083888106 -3.7908358e-23)
(0.60130236 -0.0079407068 4.9577904e-22)
(0.61301252 -0.0075266396 -2.4047506e-22)
(0.62461776 -0.0071450335 5.6497227e-23)
(0.63606121 -0.0068049527 6.4359342e-23)
(0.64762314 -0.006487046 -1.0902695e-22)
(0.65865588 -0.0062660502 -2.1182726e-22)
(0.67120673 -0.0059528434 6.3430159e-22)
(0.67986198 -0.0061582554 2.5958265e-22)
(0.69959023 -0.0054412352 -9.7414334e-22)
(0.15071713 -0.031606682 1.5097798e-21)
(0.1540864 -0.03541553 -1.15892e-20)
(0.16120101 -0.038181323 6.6538129e-21)
(0.16944149 -0.039659971 -1.3364102e-20)
(0.1776714 -0.040711462 -1.9819498e-21)
(0.18626966 -0.041502966 9.1993175e-21)
(0.19539178 -0.04196762 -9.8192728e-21)
(0.20496036 -0.042133438 1.5558681e-21)
(0.21493158 -0.042062104 1.2949658e-20)
(0.22529523 -0.041791903 3.4270204e-21)
(0.23603231 -0.041348167 -6.2329734e-21)
(0.24711598 -0.040754904 -2.8870887e-21)
(0.25851913 -0.040034349 -5.8456536e-21)
(0.27021454 -0.039205654 -6.4933571e-21)
(0.282174 -0.038285468 3.2238245e-21)
(0.29436861 -0.037288636 8.1790781e-22)
(0.30676922 -0.0362285 1.3863551e-21)
(0.31934672 -0.035117099 -3.4011294e-21)
(0.33207224 -0.033965356 -4.2893324e-21)
(0.34491733 -0.03278323 2.3876091e-21)
(0.35785422 -0.031579833 3.269875e-21)
(0.370856 -0.03036351 -1.5992813e-21)
(0.38389676 -0.029141896 1.6089103e-21)
(0.3969518 -0.027921963 -4.0715711e-22)
(0.40999775 -0.026710044 -4.0021721e-21)
(0.42301268 -0.025511864 -3.0715008e-21)
(0.43597625 -0.02433255 -2.0609896e-22)
(0.44886976 -0.023176657 4.1877561e-22)
(0.46167627 -0.022048184 -2.247552e-21)
(0.47438064 -0.020950597 -9.0595581e-22)
(0.48696958 -0.019886853 2.3137735e-22)
(0.49943168 -0.018859432 -1.3094506e-21)
(0.51175751 -0.01787037 -7.2762494e-24)
(0.52393955 -0.016921296 -4.5743217e-22)
(0.53597233 -0.016013473 -4.8427975e-22)
(0.54785239 -0.015147846 -5.8622645e-22)
(0.5595784 -0.01432509 -9.4473138e-22)
(0.57115122 -0.01354566 -4.7109497e-23)
(0.58257393 -0.012809869 -4.1285844e-24)
(0.59385248 -0.0121179 -5.9996435e-22)
(0.60499426 -0.011470083 -8.1506787e-23)
(0.61601388 -0.010866421 -4.0906969e-22)
(0.62691717 -0.010308634 -5.713952e-22)
(0.63775186 -0.0097946424 4.9894537e-22)
(0.648462 -0.0093370726 1.9446278e-23)
(0.65931843 -0.0089093373 2.6684692e-22)
(0.66969492 -0.0086143301 -2.3086892e-22)
(0.68156412 -0.0081926555 -4.284149e-22)
(0.68971966 -0.0084792372 3.7612586e-23)
(0.70851056 -0.0075117639 5.4965068e-22)
(0.25538184 -0.036745737 -2.0961841e-20)
(0.25520554 -0.041599662 4.7701721e-20)
(0.25985509 -0.04496571 1.0371406e-20)
(0.26591832 -0.046674295 -1.5810455e-20)
(0.2715982 -0.047958238 -2.038308e-21)
(0.27746624 -0.049003452 2.6208366e-21)
(0.28384316 -0.049680987 -1.6769753e-21)
(0.2906501 -0.050006628 -4.7015665e-21)
(0.29783952 -0.050050922 -4.0298848e-21)
(0.30542266 -0.049857257 -1.2251814e-20)
(0.31339846 -0.049452373 1.7983945e-20)
(0.32174988 -0.048861754 6.5611735e-21)
(0.33045719 -0.048110005 -1.6847192e-20)
(0.33949972 -0.047219011 1.0332762e-20)
(0.34885444 -0.046208161 8.3910334e-21)
(0.35849638 -0.045095016 -8.5307403e-22)
(0.36839938 -0.043895652 -3.1150421e-21)
(0.37853664 -0.042624827 -3.8685386e-21)
(0.38888103 -0.041296126 -1.4117172e-21)
(0.39940545 -0.039922085 -1.2517887e-21)
(0.41008309 -0.038514295 -3.0740902e-21)
(0.4208877 -0.03708346 0)
(0.43179386 -0.035639447 -1.3705471e-21)
(0.4427771 -0.034191319 3.9715409e-21)
(0.45381414 -0.032747355 5.4916678e-21)
(0.46488299 -0.031315071 -9.4760192e-22)
(0.4759631 -0.029901236 -3.0132764e-21)
(0.48703543 -0.028511889 3.1321368e-21)
(0.49808258 -0.027152363 2.2608182e-22)
(0.50908883 -0.025827306 3.5568987e-21)
(0.52004019 -0.024540719 -5.4151633e-22)
(0.53092448 -0.023295986 1.7768163e-21)
(0.54173134 -0.022095922 -8.4495326e-22)
(0.55245229 -0.020942817 3.271625e-22)
(0.56308075 -0.019838493 -4.7541575e-22)
(0.57361212 -0.018784356 5.9450835e-22)
(0.58404381 -0.017781468 5.0325465e-22)
(0.59437541 -0.016830601 4.2663544e-22)
(0.6046086 -0.015932343 -1.0793588e-21)
(0.61474793 -0.015087112 7.8230972e-22)
(0.62479934 -0.014295507 -4.2778037e-22)
(0.63477581 -0.013557703 -1.3382578e-21)
(0.64468188 -0.012876054 1.7543901e-21)
(0.65456264 -0.012248089 -7.4865198e-23)
(0.66436344 -0.011689909 -2.1387429e-22)
(0.67434331 -0.011168207 -1.1098722e-23)
(0.6839032 -0.010812252 -2.2087521e-22)
(0.69492129 -0.010297778 -7.2031758e-22)
(0.70245403 -0.010664121 8.4057557e-22)
(0.72006762 -0.0094802861 -5.4754121e-23)
(0.37722948 -0.038607019 -1.7547521e-20)
(0.37262782 -0.044522939 1.2858053e-20)
(0.37383089 -0.048428945 2.9967251e-21)
(0.37692679 -0.050379628 -7.656739e-21)
(0.37937618 -0.051963919 1.2090815e-20)
(0.38185066 -0.053349605 7.815375e-21)
(0.38486411 -0.05435044 -1.2677246e-20)
(0.38835299 -0.054966415 -6.087859e-21)
(0.39224993 -0.055263981 1.2740404e-20)
(0.39657562 -0.055285555 -1.5383245e-20)
(0.40134451 -0.055058175 -1.411368e-20)
(0.40654729 -0.054607368 1.4214257e-20)
(0.41216802 -0.053958279 6.8472493e-21)
(0.41818932 -0.053134367 -4.2651124e-21)
(0.42459098 -0.052157183 -1.8339762e-21)
(0.43134992 -0.051046679 -4.0468996e-21)
(0.43844123 -0.049821482 5.2963196e-21)
(0.44583888 -0.048499031 3.685504e-21)
(0.45351619 -0.047095642 -3.2484439e-21)
(0.46144622 -0.045626566 3.1536578e-21)
(0.46960211 -0.044106047 2.798963e-21)
(0.47795742 -0.042547352 -3.2473754e-21)
(0.48648639 -0.040962794 3.7300199e-22)
(0.4951641 -0.039363747 -3.2774474e-21)
(0.50396673 -0.037760653 7.4146662e-21)
(0.51287166 -0.036163031 6.223229e-21)
(0.52185762 -0.034579494 8.4954748e-22)
(0.53090481 -0.033017761 -1.8026504e-21)
(0.53999496 -0.031484682 3.8450111e-21)
(0.5491114 -0.029986266 7.4581117e-21)
(0.55823916 -0.028527721 2.3694462e-21)
(0.56736497 -0.027113497 3.4680389e-21)
(0.57647733 -0.025747338 2.0802708e-21)
(0.58556656 -0.02443234 7.9237152e-22)
(0.5946248 -0.02317102 -2.7021311e-22)
(0.60364614 -0.02196538 2.9285923e-21)
(0.6126266 -0.020816992 6.7157664e-22)
(0.62156431 -0.019727071 3.199509e-22)
(0.63045951 -0.018696595 6.0811034e-23)
(0.63931517 -0.017726331 1.1393e-21)
(0.6481357 -0.016817251 5.1261598e-23)
(0.65693236 -0.01596981 5.3767293e-22)
(0.66570832 -0.015187072 -1.4872551e-22)
(0.67450575 -0.014466303 -3.6262645e-22)
(0.68327165 -0.013826964 -2.0277683e-22)
(0.69225137 -0.013229629 -5.9040806e-22)
(0.70087795 -0.012827792 2.6871635e-22)
(0.71091856 -0.012238794 -1.8893896e-22)
(0.71773842 -0.012683021 -4.7496321e-22)
(0.7339885 -0.011322768 3.0470963e-22)
(0.51029863 -0.03625484 3.6429903e-21)
(0.50059457 -0.043255799 -1.899127e-20)
(0.49738373 -0.047693466 -2.316674e-21)
(0.49671442 -0.05006114 5.4993054e-21)
(0.49538117 -0.052156969 3.0682686e-21)
(0.49396264 -0.054059079 -3.5604321e-23)
(0.49313769 -0.055555949 6.2255911e-21)
(0.49290216 -0.056648147 7.6541653e-21)
(0.49316542 -0.057387559 9.8854041e-21)
(0.49393464 -0.057806703 -1.129445e-20)
(0.49522952 -0.057931364 -2.1678164e-20)
(0.49704552 -0.057787262 -3.9679676e-21)
(0.49936674 -0.057399642 1.6018191e-20)
(0.50217479 -0.056793115 1.2873785e-20)
(0.5054489 -0.055991421 -5.91688e-21)
(0.50916543 -0.055017173 1.3599099e-21)
(0.51329861 -0.05389189 -3.7055328e-21)
(0.51782139 -0.052636058 2.3086983e-21)
(0.52270603 -0.051269118 -2.927123e-22)
(0.52792448 -0.049809444 -1.8826667e-21)
(0.53344872 -0.048274333 7.9254598e-21)
(0.53925114 -0.046679999 -3.1216093e-22)
(0.54530477 -0.04504157 4.3834766e-22)
(0.55158349 -0.043373072 -6.4209317e-22)
(0.55806225 -0.041687431 -4.3643923e-21)
(0.56471719 -0.039996473 4.274213e-21)
(0.57152581 -0.038310929 1.9179197e-21)
(0.57846703 -0.036640455 -3.3701366e-21)
(0.58552129 -0.034993657 -4.1696092e-21)