/*--------------------------------*- C++ -*----------------------------------*\
  =========                 |
  \\      /  F ield         | OpenFOAM: The Open Source CFD Toolbox
   \\    /   O peration     | Website:  https://openfoam.org
    \\  /    A nd           | Version:  6
     \\/     M anipulation  |
\*---------------------------------------------------------------------------*/
FoamFile
{
    version     2.0;
    format      ascii;
    class       volSymmTensorField;
    location    "64";
    object      UPrime2Mean;
}
// * * * * * * * * * * * * * * * * * * * * * * * * * * * * * * * * * * * * * //

dimensions      [0 2 -2 0 0 0 0];

internalField   nonuniform List<symmTensor> 
9200
(
(0.00030655049 -0.00023798666 1.1318979e-21 0.00019108353 -6.0713878e-22 1.8152783e-38)
(0.0018745803 -0.0015035037 2.8430724e-21 0.0012103776 -2.1223877e-21 1.9733056e-38)
(0.0037523288 -0.0029237208 3.8976532e-22 0.0022899319 -2.9085102e-22 1.0826498e-38)
(0.005856163 -0.0042730501 -4.2207214e-21 0.0031495316 2.9805906e-21 2.1548781e-38)
(0.0078826408 -0.0054486718 1.6396769e-22 0.0038255032 -1.4803043e-22 3.1641088e-39)
(0.0096862795 -0.0063986762 1.7223743e-21 0.0043193141 -1.1587828e-21 4.8000375e-40)
(0.011172657 -0.0071080898 -3.5100057e-22 0.0046511094 2.5158527e-22 1.4334254e-39)
(0.012271426 -0.0075828865 3.2004587e-22 0.0048528403 -2.230352e-22 9.6559608e-40)
(0.012940652 -0.0078389215 1.6674871e-21 0.0049548002 -1.027448e-21 2.7504184e-39)
(0.013167488 -0.0078969837 1.2777755e-22 0.0049825147 -7.9581577e-23 7.8020984e-42)
(0.012966786 -0.0077804345 -1.752015e-21 0.0049568593 1.1032696e-21 1.4662825e-39)
(0.012379153 -0.0075137402 1.447921e-21 0.004894387 -9.516117e-22 1.903527e-40)
(0.01146744 -0.0071215384 -2.5601788e-21 0.0048077879 1.7878992e-21 3.1253434e-39)
(0.010311232 -0.0066280656 -1.2814833e-21 0.0047064822 9.1587246e-22 1.8840172e-40)
(0.0089996833 -0.0060567831 3.2999737e-22 0.0045972475 -2.5560849e-22 2.475428e-41)
(0.0076234316 -0.0054300581 -1.2212302e-21 0.0044848163 1.0040119e-21 2.4986729e-40)
(0.0062663648 -0.0047688699 1.0547789e-21 0.0043726319 -9.4603282e-22 3.0654453e-40)
(0.0049981856 -0.0040927704 7.5637e-22 0.0042650795 -7.1450383e-22 1.3237515e-39)
(0.0038733601 -0.0034191279 -3.513119e-23 0.0041682167 7.0611163e-23 2.4788881e-40)
(0.0029465658 -0.0027619473 -2.3726971e-23 0.0040433508 6.535087e-23 3.0723888e-40)
(0.00040342482 -0.00026968556 1.2036099e-22 0.00018520493 -4.7027199e-23 3.1784902e-40)
(0.0023822187 -0.001654503 3.0150001e-21 0.0011525042 -1.9617926e-21 2.1067152e-38)
(0.0046855516 -0.0031681696 -1.0104894e-21 0.0021530411 6.7568314e-22 1.1453521e-38)
(0.0071057699 -0.004543836 -7.5546385e-21 0.0029349274 4.7456666e-21 4.9830849e-38)
(0.0092965753 -0.0056881648 -2.4046847e-22 0.0035364796 1.5684775e-22 6.2928946e-40)
(0.011095232 -0.0065576137 5.7643982e-21 0.0039654116 -3.435414e-21 1.6455516e-38)
(0.012410847 -0.0071496529 -2.3317938e-21 0.0042470072 1.3834903e-21 5.4576614e-40)
(0.013194775 -0.0074837385 -7.0401036e-22 0.0044153235 4.1468235e-22 2.0179254e-40)
(0.013440088 -0.0075879544 2.6435912e-21 0.0045009684 -1.5747343e-21 1.5257315e-39)
(0.013178116 -0.0074934145 -3.1740499e-21 0.0045286393 1.9313861e-21 1.7357412e-39)
(0.012472786 -0.0072317141 -2.2301761e-21 0.0045174665 1.3977072e-21 2.1748557e-39)
(0.011413575 -0.006833493 4.7572429e-21 0.0044815359 -3.119949e-21 1.1037934e-38)
(0.010106511 -0.006327732 2.1947426e-21 0.00443053 -1.5412475e-21 7.4065626e-40)
(0.0086636596 -0.0057415196 -3.4075054e-21 0.0043704519 2.5732152e-21 3.7302854e-39)
(0.0071923418 -0.0051000327 5.9963989e-22 0.0043043163 -4.9235113e-22 3.1635234e-40)
(0.0057855754 -0.0044265507 -1.3200744e-21 0.0042327525 1.2236221e-21 8.1818119e-40)
(0.0045149303 -0.0037424199 -5.4966414e-22 0.0041546201 6.0336488e-22 2.6289303e-40)
(0.0034265157 -0.0030666511 1.6030466e-21 0.0040677364 -1.9478532e-21 4.2273382e-39)
(0.0025427044 -0.0024142023 7.4503329e-22 0.003965589 -1.0953522e-21 7.7982864e-40)
(0.0018726319 -0.0018004358 -2.9521629e-22 0.0038139735 3.9702999e-22 6.2571371e-39)
(0.00051232957 -0.00029182588 -9.8989856e-22 0.00017001823 4.2227149e-22 8.2149911e-39)
(0.0029198923 -0.0017392665 -1.6365008e-21 0.0010386319 9.0917977e-22 8.5677428e-39)
(0.0056361903 -0.0032784592 -1.8854751e-21 0.0019168395 1.0972273e-21 2.1415495e-38)
(0.0083151738 -0.0046191052 6.0337534e-23 0.0025928983 -3.3361581e-23 2.3141044e-42)
(0.010577881 -0.0056826033 1.5482071e-22 0.0031056035 -6.9309297e-23 1.5377776e-38)
(0.012258832 -0.0064387111 2.0306176e-21 0.0034683117 -1.0934502e-21 4.2955054e-39)
(0.013289836 -0.006899657 1.6734705e-22 0.0037090855 -8.7632444e-23 1.7802317e-39)
(0.01366454 -0.0070981111 -3.3374917e-21 0.0038610546 1.8317731e-21 1.0898953e-39)
(0.013429724 -0.0070724104 3.9201429e-21 0.0039521786 -2.2153616e-21 2.0751438e-39)
(0.012674733 -0.006860911 1.2810905e-21 0.0040036236 -7.6353082e-22 2.3481921e-39)
(0.011518878 -0.0064998194 -3.4733758e-21 0.0040304182 2.1763857e-21 4.7825066e-39)
(0.010097613 -0.0060223847 -1.07014e-21 0.0040422424 7.2468566e-22 1.5792838e-39)
(0.0085479884 -0.0054589267 4.1036723e-22 0.004044311 -2.9243798e-22 4.3093246e-39)
(0.0069949601 -0.0048372503 9.0096167e-22 0.0040383125 -7.3985916e-22 6.0429051e-40)
(0.005540479 -0.0041830497 -3.0309524e-22 0.0040233252 2.8293719e-22 4.7084354e-40)
(0.0042568251 -0.0035200682 7.1211572e-22 0.0039966925 -7.6719408e-22 3.5527839e-40)
(0.0031847849 -0.002869946 -4.9033962e-22 0.0039548239 6.2476328e-22 1.3194317e-40)
(0.0023362328 -0.0022516843 -9.436736e-22 0.0038936427 1.4524978e-21 3.4102342e-39)
(0.0017002112 -0.0016804986 -5.1733465e-24 0.0038081589 7.1982195e-24 3.1595676e-39)
(0.0012520192 -0.0011699334 3.150339e-22 0.0036884864 -7.8660939e-22 3.3079913e-40)
(0.00062947559 -0.00030112272 -7.8513425e-22 0.00014692132 2.8972672e-22 4.0811445e-39)
(0.0034591887 -0.0017434605 1.1603267e-21 0.00088075131 -5.7026844e-22 7.4841261e-40)
(0.0065455941 -0.0032353759 1.0339194e-21 0.0016079725 -5.1196877e-22 8.7879627e-40)
(0.0094003138 -0.0044843434 2.2733698e-21 0.0021638105 -1.0895172e-21 9.5070006e-39)
(0.011628111 -0.005430465 1.9723515e-21 0.0025854325 -9.445221e-22 4.225155e-39)
(0.013081433 -0.0060595686 -3.3985957e-21 0.0028897829 1.6394285e-21 3.1977066e-39)
(0.013737466 -0.0063977255 -1.8828413e-21 0.0031043931 9.2897569e-22 9.0788136e-40)
(0.013652236 -0.0064871536 0 0.0032581519 0 0)
(0.012939982 -0.0063715394 2.022969e-21 0.0033735481 -1.1332385e-21 1.1835969e-38)
(0.011752719 -0.0060913712 -8.6051177e-22 0.0034659425 5.2912713e-22 4.4854323e-39)
(0.01025936 -0.0056829604 -4.9878138e-21 0.0035445328 3.1077886e-21 3.7527614e-39)
(0.0086258753 -0.0051788104 -6.4043912e-22 0.0036133972 4.2029764e-22 7.986275e-40)
(0.0069981602 -0.0046085315 2.36709e-21 0.0036726191 -1.876249e-21 5.2928433e-39)
(0.0054897492 -0.0039996448 1.5703409e-22 0.003719472 -1.02682e-22 2.2338965e-39)
(0.0041757954 -0.0033778556 -3.5304841e-23 0.0037496045 3.7496505e-23 1.5157567e-42)
(0.0030934391 -0.0027667057 3.7082762e-22 0.0037581914 -4.7151462e-22 2.6670449e-40)
(0.0022474133 -0.0021867742 1.1790231e-23 0.0037408805 2.2220884e-24 3.2330582e-40)
(0.0016188282 -0.00165476 -6.3253044e-22 0.003694173 1.2007797e-21 7.7338735e-40)
(0.0011745112 -0.0011826323 -3.3707088e-22 0.0036172816 8.2185314e-22 5.4851355e-40)
(0.00087572269 -0.0007779538 1.4408132e-22 0.0035177252 -5.8188156e-22 3.6531125e-39)
(0.00074940454 -0.00029483142 5.8991932e-22 0.0001181092 -1.8788606e-22 1.6058386e-39)
(0.0039655049 -0.0016583057 2.4514443e-21 0.00069507135 -9.7795684e-22 1.4467962e-38)
(0.007348887 -0.0030322424 1.8656201e-21 0.0012588854 -7.7342613e-22 9.0046673e-40)
(0.01027746 -0.0041438445 2.1001416e-21 0.0016929983 -8.6316793e-22 5.0838176e-39)
(0.012362147 -0.0049535238 -3.192903e-21 0.0020305859 1.3335094e-21 8.000705e-39)
(0.013497878 -0.0054623508 1.0385066e-22 0.0022892236 -3.3936726e-23 7.6252805e-40)
(0.013729129 -0.005705299 1.7739608e-22 0.0024924834 -7.9098195e-23 6.3030792e-42)
(0.013188533 -0.0057272182 2.4994761e-21 0.0026622567 -1.1987228e-21 2.8385936e-39)
(0.012061441 -0.0055703128 3.3245996e-22 0.0028135752 -1.7043223e-22 2.5149217e-41)
(0.010554716 -0.0052716602 -8.775166e-22 0.0029546402 5.2183733e-22 1.5440424e-39)
(0.0088691531 -0.0048640257 2.8042723e-21 0.0030879949 -1.8401075e-21 1.0713492e-38)
(0.0071775867 -0.0043774054 -2.0377208e-21 0.0032117761 1.4152373e-21 8.6938316e-40)
(0.0056106317 -0.0038402751 -3.7450478e-21 0.0033210956 3.127522e-21 6.2665923e-39)
(0.0042511615 -0.0032799417 -1.21284e-22 0.0034095129 1.2076343e-22 1.3418217e-41)
(0.0031369289 -0.0027218989 1.2635971e-21 0.0034704843 -1.5617531e-21 5.2515575e-39)
(0.002269151 -0.0021885357 0 0.003498659 0 0)
(0.0016240884 -0.0016977381 1.6271509e-22 0.0034907283 -2.5359311e-22 1.3703374e-40)
(0.0011647192 -0.0012619604 -6.9348384e-23 0.0034454664 1.8569307e-22 2.0530731e-40)
(0.00084997206 -0.00088803424 -7.870208e-23 0.0033660688 1.9167758e-22 5.2682351e-41)
(0.00064096231 -0.00057719712 2.5484748e-23 0.0032684726 -1.7030677e-22 3.7095298e-40)
(0.00086556293 -0.00027139362 1.2883064e-21 8.6584333e-05 -3.3168727e-22 6.4935755e-39)
(0.0044029275 -0.0014835427 1.238532e-22 0.000501139 -4.0731091e-23 1.1956824e-41)
(0.0079855069 -0.0026789296 -3.5230437e-22 0.00090544243 1.1972444e-22 5.2844566e-41)
(0.010878542 -0.0036238387 3.3403011e-22 0.001227011 -1.1010722e-22 1.0491868e-39)
(0.012725646 -0.0042970986 -2.1790501e-21 0.0014929241 7.7565538e-22 1.9607483e-39)
(0.013488504 -0.004709737 -1.0313766e-21 0.001718444 3.8380444e-22 1.7445188e-40)
(0.013294669 -0.0048970061 6.948445e-22 0.0019206722 -2.1755366e-22 5.6146906e-39)
(0.012356979 -0.0048976307 -2.961001e-23 0.002113078 3.2664387e-23 4.3962219e-40)
(0.010922948 -0.0047455628 -1.6716768e-21 0.002302527 8.7035529e-22 4.6268632e-39)
(0.009235155 -0.0044704565 2.8592622e-21 0.0024897792 -1.5602806e-21 1.279926e-39)
(0.0075017698 -0.004100086 -6.1023996e-23 0.0026707736 1.1345169e-22 2.4143681e-39)
(0.0058787017 -0.0036621698 -2.1780044e-21 0.0028381273 1.7022369e-21 6.5396518e-39)
(0.0044637468 -0.0031847771 0 0.0029828664 0 0)
(0.0033011253 -0.0026952556 4.9122605e-22 0.0030962227 -6.3202473e-22 3.5521042e-39)
(0.00239303 -0.0022182579 1.8644209e-23 0.0031712288 -5.7959084e-23 1.9533966e-40)
(0.0017140626 -0.0017737151 -5.7666125e-22 0.0032038689 1.044024e-21 4.0879203e-39)
(0.0012249672 -0.0013754698 -1.3092194e-22 0.0031934724 2.6755413e-22 8.2340046e-41)
(0.0008833556 -0.001030995 -3.4447333e-23 0.0031421561 1.2218879e-22 1.3823564e-40)
(0.00065026003 -0.00074225608 -4.8078997e-23 0.0030565453 1.6432759e-22 5.2128195e-41)
(0.00049301611 -0.00050642849 7.9384828e-23 0.0029550532 -3.990029e-22 5.048558e-40)
(0.00097105206 -0.00023083978 4.9858695e-22 5.5850732e-05 -9.5955945e-23 1.0284709e-39)
(0.00473893 -0.0012282818 -3.5412807e-21 0.00031937211 8.9183908e-22 2.235874e-38)
(0.0084074845 -0.0022012249 -3.3413513e-22 0.00058207679 9.3566023e-23 2.0876251e-39)
(0.011160646 -0.0029688145 -9.6623237e-22 0.0008072412 2.835244e-22 1.0503002e-38)
(0.012701985 -0.0035223018 -6.6633932e-22 0.0010147509 1.8915025e-22 1.4300956e-40)
(0.013078841 -0.0038732665 -3.7731272e-21 0.0012157386 1.2014249e-21 1.8638827e-39)
(0.012506951 -0.0040466516 -1.8314743e-21 0.0014201123 6.6785435e-22 1.5346313e-39)
(0.011270303 -0.0040667958 3.4817006e-21 0.001633179 -1.3654219e-21 1.1645492e-39)
(0.0096586701 -0.0039548095 5.8617479e-22 0.0018541682 -3.2041461e-22 1.5881917e-39)
(0.0079252082 -0.0037316912 -7.4872346e-22 0.0020769535 3.5423851e-22 5.3761994e-40)
(0.0062616964 -0.0034210912 3.5621162e-22 0.0022915398 -1.3112245e-22 2.0414164e-39)
(0.0047904341 -0.0030498634 -5.6574373e-23 0.0024860082 9.2279795e-23 5.1741553e-40)
(0.0035697783 -0.0026464301 0 0.0026487183 0 0)
(0.0026084022 -0.0022378511 3.4530237e-22 0.0027703413 -3.9045692e-22 1.1661552e-40)
(0.0018827853 -0.0018468425 -7.1329305e-22 0.002845297 1.0330088e-21 1.643279e-39)
(0.0013533917 -0.0014897665 -2.2860806e-22 0.0028723475 3.8936935e-22 1.3740614e-40)
(0.00097688816 -0.0011760231 3.7594244e-22 0.002854215 -8.7162587e-22 1.9852822e-39)
(0.00071368285 -0.00090878442 -9.5072902e-23 0.0027963406 1.2751174e-22 4.3697787e-40)
(0.00053121051 -0.00068678518 -8.2996494e-24 0.0027076112 -1.0830483e-23 4.9134664e-41)
(0.00040417784 -0.00050566518 8.3958716e-23 0.0026052426 -2.869511e-22 3.6892929e-41)
(0.001059409 -0.00017489852 3.6462587e-22 2.9440819e-05 -4.7921388e-23 6.4389453e-40)
(0.0049485328 -0.000910101 -3.2451273e-21 0.00016819625 5.8617382e-22 1.0235994e-38)
(0.0085852348 -0.0016372791 -2.5388739e-21 0.00031707906 5.0626885e-22 1.2270387e-38)
(0.011110418 -0.0022346239 3.5275053e-21 0.00046469304 -7.4893385e-22 2.9720452e-39)
(0.012311513 -0.0026959733 2.6154218e-21 0.00062441529 -6.0322191e-22 5.9705262e-40)
(0.01233038 -0.0030216573 -1.8669897e-21 0.00080348417 4.239746e-22 6.493378e-39)
(0.011463277 -0.0032163839 6.1962808e-22 0.0010059852 -2.4589125e-22 2.7584615e-39)
(0.010045264 -0.0032846244 3.5248148e-21 0.0012307496 -1.3080102e-21 2.9944775e-39)
(0.0083825766 -0.0032334281 1.5239592e-21 0.0014706666 -6.2734383e-22 3.6381441e-40)
(0.0067146665 -0.0030765834 -1.4722841e-21 0.0017136948 7.9662618e-22 9.7323537e-40)
(0.0052001159 -0.0028357589 -1.9700699e-21 0.001944918 1.2458749e-21 1.1116598e-39)
(0.0039212027 -0.0025382915 -5.2874195e-23 0.0021492205 4.0771853e-23 1.1553296e-42)
(0.0029001637 -0.0022129793 5.4898338e-22 0.0023139589 -5.1532208e-22 1.7876019e-40)
(0.002119826 -0.0018856797 -1.217312e-23 0.0024309332 6.8299038e-23 2.9817164e-40)
(0.0015427671 -0.0015761761 -8.4019121e-24 0.0024972334 1.0979104e-22 8.0696622e-40)
(0.0011256947 -0.001296952 -1.4489506e-24 0.0025149293 -1.4175596e-22 1.4577111e-39)
(0.00082823797 -0.0010536783 1.7477555e-22 0.0024898204 -3.9666933e-22 4.1532349e-40)
(0.00061702946 -0.0008468136 -8.8093195e-23 0.0024296909 3.3134582e-22 1.1057002e-39)
(0.00046650549 -0.00067380711 -2.3881927e-22 0.0023441738 7.9196827e-22 2.1011064e-39)
(0.0003577256 -0.00053052788 8.5736651e-23 0.0022473172 -2.2875011e-22 4.2660614e-41)
(0.0011256905 -0.0001068422 -9.3035719e-22 1.041595e-05 7.7409562e-23 1.9204535e-39)
(0.005017816 -0.00055277256 -6.7435222e-22 6.1559045e-05 7.3473542e-23 2.0588048e-39)
(0.008510506 -0.0010323442 5.5009869e-21 0.00012919956 -7.0614051e-22 2.5303097e-38)
(0.010744344 -0.0014805819 4.0094082e-21 0.00021710023 -5.9341574e-22 2.7137559e-39)
(0.011606542 -0.0018815299 1.7537566e-21 0.000335173 -2.8374105e-22 1.3430289e-39)
(0.011329144 -0.0022127912 3.5192537e-22 0.00048934861 -7.4750676e-23 1.2371859e-41)
(0.010269411 -0.0024520888 -3.2438014e-21 0.00068090693 7.4693924e-22 5.5993999e-39)
(0.0087868883 -0.0025825339 0 0.00090457484 0 0)
(0.0071788736 -0.0025990523 -1.9339864e-21 0.0011483591 8.892739e-22 4.6526289e-39)
(0.0056533116 -0.0025111744 -3.2349877e-22 0.0013953527 2.3235407e-22 1.0645233e-39)
(0.0043284486 -0.0023406817 9.2266609e-22 0.0016269003 -5.6652073e-22 2.3358188e-40)
(0.0032493202 -0.0021159019 9.1036204e-23 0.0018261776 -1.3660898e-22 5.8642096e-40)
(0.0024112117 -0.0018653138 -4.2110108e-22 0.001981089 4.5041155e-22 6.690556e-40)
(0.001782273 -0.0016126198 -3.0599177e-22 0.0020857292 4.5176771e-22 1.4479032e-39)
(0.0013208461 -0.0013743053 2.0709939e-22 0.0021402685 -2.1842085e-22 1.7455954e-40)
(0.00098628721 -0.0011595457 2.8017589e-22 0.0021496433 -3.8235662e-22 1.5099811e-40)
(0.0007442127 -0.0009716221 -2.4134125e-22 0.0021216388 4.3599128e-22 1.3495447e-40)
(0.00056798857 -0.00080993611 -3.079086e-22 0.0020649925 7.5698865e-22 1.7493856e-39)
(0.00043813937 -0.00067208361 2.9829574e-23 0.0019887395 -3.5503058e-24 2.1240709e-40)
(0.00034065157 -0.00055492356 3.710311e-23 0.0019030699 -1.5896343e-22 2.4775768e-40)
(0.0011662553 -3.0954433e-05 -6.1524096e-22 9.4461831e-07 1.5704015e-23 9.4033083e-40)
(0.0049436972 -0.000183266 2.582079e-21 7.3539622e-06 -9.3706056e-23 5.2001023e-39)
(0.0081954155 -0.00043352848 3.9510079e-21 2.615271e-05 -2.4776647e-22 3.7850774e-38)
(0.010105072 -0.00076307296 -4.5029148e-21 6.8737615e-05 4.0380694e-22 1.0355087e-38)
(0.010662156 -0.001133144 1.5900116e-21 0.00014697421 -1.8334013e-22 2.4792862e-40)
(0.010171321 -0.0014903594 6.1584935e-22 0.00026982901 9.7018827e-24 9.6238176e-39)
(0.0090237995 -0.0017834353 1.6695283e-22 0.00043939038 -3.5762255e-23 3.1929325e-42)
(0.007576668 -0.0019766019 -2.3392997e-21 0.00064850509 5.6575935e-22 3.1715945e-39)
(0.0060986487 -0.0020566738 -5.245019e-23 0.00088152501 1.9212923e-23 4.6780558e-43)
(0.0047574179 -0.002032067 8.4659207e-22 0.0011177262 -4.7484502e-22 1.2172805e-39)
(0.0036324211 -0.0019258937 6.3420805e-23 0.0013360323 -7.4149787e-23 1.7684125e-40)
(0.002739753 -0.0017670713 -3.0969978e-22 0.0015193627 7.5007806e-23 2.2876859e-39)
(0.0020583215 -0.0015827955 -6.5677759e-22 0.0016573018 5.6841968e-22 2.2105945e-40)
(0.0015508441 -0.0013940624 1.0937763e-24 0.0017466433 5.7956097e-23 2.983433e-40)
(0.0011775707 -0.0012143595 2.1284777e-22 0.0017901934 -3.0768662e-22 2.8238474e-40)
(0.00090343647 -0.0010505752 1.3836541e-22 0.0017946638 -2.4618754e-22 2.7682072e-40)
(0.00070060848 -0.00090490169 2.5888514e-23 0.0017684767 -1.1867339e-22 4.5703435e-40)
(0.00054845515 -0.00077682771 -2.2804566e-22 0.0017200694 3.3356065e-22 3.4980613e-40)
(0.0004323711 -0.00066476145 -5.6909382e-23 0.0016570243 -4.0529144e-23 1.5708464e-39)
(0.0003420155 -0.00056656304 1.0557467e-22 0.0015858386 -4.1205078e-22 2.571019e-39)
(8.0456626e-06 -1.0015947e-06 8.0546697e-23 1.2263277e-06 -1.6142554e-23 9.1944502e-40)
(3.7959319e-05 -1.5888717e-05 -1.148636e-22 8.1619408e-06 3.1826992e-23 8.8541973e-40)
(8.5026667e-05 -3.6726544e-05 2.5524276e-22 1.6261903e-05 -9.5350889e-23 5.0811063e-39)
(0.00027255718 -7.7435685e-05 7.1131089e-22 2.3278111e-05 -1.5108947e-22 1.7095735e-38)
(0.00059768572 -0.00012752799 -5.0697715e-22 2.9523039e-05 8.574853e-23 4.4434891e-39)
(0.0010668877 -0.00018331535 6.3776924e-22 3.499431e-05 -8.5759995e-23 4.9103958e-39)
(0.0016944324 -0.00024274558 -8.7126727e-22 3.9700554e-05 1.0911326e-22 5.3850722e-39)
(0.0024830361 -0.00030378688 -8.9664283e-22 4.3749222e-05 9.2181583e-23 5.6987212e-39)
(0.0034273757 -0.00036479252 1.1197631e-21 4.725718e-05 -1.138019e-22 6.0151855e-39)
(0.0045194036 -0.00042454548 -8.6360272e-22 5.0317343e-05 8.2462137e-23 3.0617373e-39)
(0.0057494017 -0.00048212944 -4.4241625e-23 5.300159e-05 7.2288848e-25 3.5744923e-41)
(0.0071061528 -0.00053683706 2.4275281e-22 5.536579e-05 -2.5375868e-23 1.1160919e-40)
(0.0085774171 -0.00058811445 -4.2597537e-23 5.7453318e-05 1.9336685e-24 1.7929179e-41)
(0.01015037 -0.00063552609 1.2991894e-21 5.929922e-05 -1.1384389e-22 5.346932e-39)
(0.011811865 -0.00067874269 3.1708774e-24 6.0935446e-05 2.4830131e-24 1.1623429e-41)
(0.013548704 -0.00071755949 -1.8478523e-21 6.2396276e-05 1.7113634e-22 1.0975128e-38)
(0.015347987 -0.00075191439 3.3402626e-22 6.3718068e-05 -3.5557417e-23 2.2984321e-40)
(0.017197173 -0.00078181269 7.9276097e-22 6.4928763e-05 -7.9735553e-23 2.7904262e-39)
(0.01908374 -0.00080743373 -1.2428668e-21 6.6055979e-05 1.3735899e-22 7.9018433e-39)
(0.020993974 -0.00083007551 -6.5874003e-22 6.7104787e-05 8.0198717e-23 2.9679191e-39)
(9.1135604e-06 -4.1972048e-06 2.6442516e-23 1.0796315e-05 -9.6900199e-24 9.0392817e-41)
(4.8393509e-05 -5.4446218e-05 -7.2726116e-22 7.1924889e-05 5.4835781e-22 2.9610212e-38)
(0.00010858873 -0.00012358056 1.4441041e-22 0.00014323092 -1.1963042e-22 2.6726083e-39)
(0.00032045847 -0.00025046632 7.6371165e-22 0.00020500597 -4.6721534e-22 1.4277488e-38)
(0.00067337931 -0.00040423652 1.0586105e-21 0.00025986321 -5.056264e-22 1.6144089e-38)
(0.0011712796 -0.00057403471 1.2763058e-22 0.00030771242 -5.0732332e-23 1.5161093e-40)
(0.0018263434 -0.00075373707 -3.3813774e-21 0.00034864747 1.1576235e-21 8.0703035e-38)
(0.0026388587 -0.00093734754 -1.1733812e-22 0.00038362449 4.8043948e-23 2.2851429e-41)
(0.0036013339 -0.0011200452 1.8895781e-21 0.00041367308 -5.6521776e-22 1.3742296e-38)
(0.004703754 -0.0012982738 -4.5364818e-22 0.00043961326 1.2268381e-22 7.6435801e-40)
(0.005934485 -0.0014693552 -1.7058615e-21 0.00046207989 4.5763532e-22 8.4640398e-39)
(0.007280413 -0.0016312212 3.5631289e-22 0.00048156419 -8.897854e-23 3.8554917e-40)
(0.008727407 -0.0017822505 1.4963378e-21 0.00049844332 -3.2465233e-22 9.0990044e-39)
(0.010260723 -0.001921163 6.0778091e-22 0.00051301617 -1.4799203e-22 1.035853e-39)
(0.011865212 -0.0020469775 1.1942927e-21 0.00052554792 -3.1476411e-22 2.9832178e-39)
(0.013525597 -0.0021590612 -9.317882e-22 0.00053631595 2.3215733e-22 2.5310461e-39)
(0.015227128 -0.0022572018 -8.7443235e-22 0.00054561757 2.1688287e-22 2.7706277e-39)
(0.016955426 -0.002341379 8.5963132e-22 0.00055369981 -2.494828e-22 1.5885194e-39)
(0.018692334 -0.0024121358 7.5888049e-22 0.00056084332 -2.1726544e-22 2.7963702e-39)
(0.020415527 -0.0024742312 2.7808548e-22 0.00056718364 -7.7610173e-23 1.1933153e-39)
(1.1718464e-05 -1.0762168e-05 2.0347955e-23 2.8814086e-05 -1.0090387e-23 4.7480503e-41)
(7.3132388e-05 -0.00011250348 5.5209432e-22 0.00019198606 -5.9101206e-22 1.2618606e-38)
(0.00016328646 -0.00024834223 -1.2060448e-22 0.00038187999 1.5534451e-22 6.6062573e-40)
(0.00042577446 -0.00047464279 -8.2873263e-22 0.00054622278 6.9641214e-22 1.5641572e-38)
(0.00083564077 -0.00074176643 3.0194609e-22 0.00069160054 -2.5260498e-22 4.3848033e-40)
(0.0013917007 -0.0010321388 3.958359e-22 0.00081749195 -3.2077631e-22 2.2343534e-40)
(0.0021019844 -0.0013356745 -4.9753898e-22 0.00092414966 2.6153094e-22 1.3914016e-39)
(0.0029622307 -0.0016427155 -1.2814481e-21 0.0010141333 7.4217372e-22 2.7455214e-39)
(0.003960869 -0.0019455827 5.6013874e-22 0.0010901889 -2.6921774e-22 7.7389592e-40)
(0.0050841595 -0.0022386159 1.186366e-21 0.0011545191 -4.8582684e-22 4.4066625e-39)
(0.0063168699 -0.0025175431 3.1513867e-22 0.0012088396 -2.2235187e-22 1.6157685e-40)
(0.0076423608 -0.0027790567 1.4352893e-21 0.0012544765 -4.6521411e-22 8.1887097e-39)
(0.0090430206 -0.0030205503 1.1963069e-22 0.0012924376 -4.3582195e-23 3.383977e-41)
(0.010500622 -0.0032399414 -2.0791485e-21 0.0013234997 6.8719825e-22 1.314151e-38)
(0.011996459 -0.0034355968 1.43472e-22 0.0013483273 -9.9842755e-23 7.24034e-41)
(0.01351165 -0.0036064128 -9.5180007e-22 0.0013675964 2.5515383e-22 5.1305568e-39)
(0.015028365 -0.0037519731 -1.2993579e-21 0.0013820276 5.1988551e-22 2.0786901e-39)
(0.016529432 -0.0038722007 2.0710437e-21 0.0013923359 -8.2064506e-22 6.9182233e-39)
(0.01798791 -0.0039680279 1.0660523e-21 0.0013996622 -4.5743054e-22 1.3969148e-39)
(0.019368704 -0.0040493037 2.1602727e-22 0.0014050504 -1.0331916e-22 2.976779e-41)
(1.7269581e-05 -2.2280683e-05 -3.0584659e-23 5.3096123e-05 3.8610318e-23 6.8851178e-41)
(0.00011980534 -0.00019966728 -1.2773307e-21 0.00035408103 1.6160023e-21 4.183445e-38)
(0.000264442 -0.00042962561 -9.3282845e-23 0.00070335706 1.1986449e-22 5.7232558e-40)
(0.00060995832 -0.00077442397 2.1186045e-22 0.0010049345 -2.3458907e-22 3.6304481e-40)
(0.0011113968 -0.0011681555 -3.5471611e-23 0.0012702559 9.7691381e-24 9.4180201e-41)
(0.001760047 -0.0015869454 1.0759429e-21 0.0014976997 -7.8620428e-22 6.8663889e-39)
(0.0025576746 -0.0020168171 1.1837371e-21 0.0016876674 -7.6934264e-22 6.2351011e-39)
(0.0034934294 -0.0024448995 -3.6024626e-22 0.0018449102 1.726351e-22 9.8429891e-40)
(0.0045498393 -0.0028611198 -1.3027631e-21 0.0019745388 6.7408988e-22 6.2479636e-39)
(0.0057077639 -0.0032580571 -2.5929218e-21 0.0020807087 1.3878792e-21 1.3203551e-38)
(0.0069468103 -0.0036300968 -6.3248359e-23 0.0021667006 -2.9358172e-23 3.0305921e-40)
(0.0082453835 -0.0039728843 3.2532196e-21 0.0022350726 -1.4991997e-21 2.1591941e-38)
(0.0095810885 -0.0042829706 -1.3169057e-21 0.0022877717 4.9154979e-22 6.401075e-39)
(0.010931108 -0.0045575962 -8.342577e-22 0.0023262932 3.6196238e-22 1.2581129e-39)
(0.012272305 -0.00479457 -9.0759605e-23 0.0023518731 1.1365517e-22 2.7284812e-40)
(0.013581574 -0.0049923595 1.9231812e-21 0.0023657003 -8.4323679e-22 5.1434568e-39)
(0.014837756 -0.0051503883 -1.0674706e-21 0.0023690009 5.4675871e-22 3.3036021e-40)
(0.016021406 -0.0052687592 -2.4230075e-21 0.0023632428 1.0283046e-21 1.1086101e-38)
(0.017097123 -0.0053490606 1.5790937e-21 0.0023517511 -7.0257595e-22 5.5699138e-39)
(0.018017116 -0.0054069445 1.3643458e-21 0.0023387772 -5.5548169e-22 5.196192e-39)
(2.7621187e-05 -3.9695192e-05 1.3706787e-22 8.0968656e-05 -1.3324659e-22 9.0167575e-40)
(0.00019852754 -0.00032142596 4.564276e-23 0.00054007141 -1.2818914e-23 4.0380237e-40)
(0.00043216453 -0.00067780247 -1.7460089e-21 0.0010704306 2.505637e-21 3.4239856e-38)
(0.00090052718 -0.0011626361 -1.0029257e-21 0.0015264919 1.0660395e-21 1.0617287e-38)
(0.0015337687 -0.0016965218 6.728958e-22 0.0019246753 -5.354347e-22 6.4237197e-39)
(0.002313108 -0.0022494022 8.2450227e-22 0.0022615009 -6.6406348e-22 3.0204161e-39)
(0.0032316546 -0.002803411 -1.0747279e-21 0.0025375598 6.9962953e-22 7.076556e-39)
(0.0042698374 -0.0033430399 -1.6329823e-21 0.0027602637 9.3198486e-22 1.5529297e-38)
(0.0054024198 -0.0038564514 2.3832616e-21 0.0029376217 -1.4174951e-21 1.5906703e-38)
(0.0066032012 -0.0043349847 6.9075975e-22 0.0030762683 -2.7539148e-22 3.7104756e-39)
(0.0078451716 -0.0047721268 -2.0860811e-21 0.0031815593 1.3918986e-21 1.1780693e-39)
(0.0091006146 -0.0051628921 9.2717685e-22 0.0032577619 -4.1598124e-22 2.8527776e-39)
(0.010341611 -0.0055034219 0 0.0033082024 0 0)
(0.011540477 -0.0057907149 8.7857696e-22 0.0033354661 -4.2697299e-22 1.1119274e-39)
(0.012669983 -0.0060224819 -6.5199382e-22 0.0033416596 3.0952815e-22 5.9343447e-40)
(0.013703853 -0.0061972246 -9.8398541e-22 0.0033286883 4.9575281e-22 7.1527608e-40)
(0.014619468 -0.0063146598 3.4952883e-22 0.0032983324 -3.0682768e-22 1.0180654e-39)
(0.015398323 -0.0063757426 -2.8653569e-22 0.0032528501 1.7881238e-22 3.5832059e-41)
(0.016001325 -0.0063835523 1.3401653e-21 0.0031991754 -5.8436354e-22 6.0233521e-39)
(0.016370307 -0.0063587701 -1.1050062e-21 0.0031490473 5.5709455e-22 3.3879764e-40)
(4.4905673e-05 -6.3277046e-05 1.315849e-22 0.00010974644 -1.1064316e-22 7.2376412e-40)
(0.00032060502 -0.00047854938 6.277302e-22 0.00073081511 -8.3718286e-22 2.6760369e-39)
(0.0006884141 -0.00099334345 -8.4162728e-22 0.0014432259 1.1194307e-21 6.435805e-39)
(0.001326108 -0.00163761 -1.367022e-21 0.0020518917 1.5444524e-21 5.355463e-39)
(0.0021344879 -0.0023210859 -3.7759874e-22 0.0025778365 5.7533314e-22 4.2379135e-39)
(0.0030816311 -0.0030073562 -1.2266375e-21 0.0030153188 1.0816399e-21 2.6376363e-39)
(0.0041491578 -0.00367473 -5.8098435e-22 0.0033654577 3.5699409e-22 3.0653116e-39)
(0.0053065442 -0.0043058597 9.9517822e-22 0.0036387932 -5.9683887e-22 5.652296e-39)
(0.0065189838 -0.0048880553 2.3512934e-21 0.0038467299 -1.3980621e-21 1.9339423e-38)
(0.0077517865 -0.0054123003 7.1362654e-22 0.0039989378 -4.3985267e-22 8.0901999e-40)
(0.0089704989 -0.0058720959 -6.7725999e-22 0.0041034236 3.5813511e-22 1.2859746e-39)
(0.010141115 -0.0062627646 -1.3681442e-22 0.0041667397 -2.706927e-23 1.1218933e-39)
(0.01123083 -0.0065810278 -3.1437104e-21 0.0041941492 1.7267252e-21 1.0615336e-38)
(0.01220877 -0.006824727 -9.6719852e-22 0.0041898547 5.0766877e-22 1.0983436e-39)
(0.01304649 -0.0069926574 1.5916649e-21 0.0041572917 -9.3705564e-22 5.0275989e-40)
(0.013718707 -0.0070845797 -1.5742391e-21 0.0040994113 8.6405655e-22 1.0714595e-39)
(0.014206599 -0.0071016113 -5.5051799e-22 0.0040185959 2.7354956e-22 3.4677885e-40)
(0.014499444 -0.0070466226 1.2176243e-21 0.0039174354 -5.0921276e-22 5.4177617e-39)
(0.014564417 -0.0069254367 1.8022226e-21 0.0038066972 -9.2017618e-22 4.0773797e-39)
(0.014337823 -0.0067617239 2.2167109e-22 0.0037105106 -1.0484392e-22 7.9696924e-41)
(7.1366615e-05 -9.2646166e-05 -3.7130663e-22 0.00013697036 3.0161374e-22 4.2832235e-39)
(0.00049711757 -0.00066701902 -4.1298617e-22 0.00090818492 4.1909591e-22 3.4137898e-39)
(0.0010535269 -0.0013663035 1.0069346e-21 0.0017838923 -1.2822483e-21 1.4890222e-39)
(0.0019107142 -0.0021821106 1.5523993e-21 0.0025252075 -1.6140813e-21 7.1348038e-39)
(0.0029357304 -0.0030157659 2.0283243e-23 0.0031571962 -1.831636e-23 1.4198845e-42)
(0.0040797469 -0.0038243515 -4.1908182e-21 0.0036721826 3.4698391e-21 4.1743188e-38)
(0.0053097852 -0.0045827989 -1.6074438e-21 0.0040726349 1.3902381e-21 5.7134968e-40)
(0.0065823582 -0.0052731568 1.2680665e-21 0.0043728186 -8.5695756e-22 4.585315e-39)
(0.0078520215 -0.0058833423 1.4352814e-21 0.0045880341 -9.6859115e-22 2.7979031e-39)
(0.009075422 -0.0064054972 -1.4133779e-21 0.0047315153 7.8599107e-22 7.7011382e-39)
(0.010211466 -0.0068346982 -4.0576755e-21 0.0048144724 2.5827488e-21 1.1142096e-38)
(0.011221943 -0.0071682237 2.6470969e-21 0.0048462821 -1.6194406e-21 4.5781408e-39)
(0.012072694 -0.0074051128 1.5738288e-21 0.004834665 -8.2213544e-22 5.5204858e-39)
(0.012734749 -0.0075458774 -2.148536e-21 0.0047859271 1.1966132e-21 4.5371065e-39)
(0.013185192 -0.0075922983 9.3141519e-22 0.0047052478 -5.4690618e-22 2.99924e-40)
(0.013407984 -0.0075472978 1.5339268e-21 0.004596907 -7.9726586e-22 3.3827945e-39)
(0.013397224 -0.0074150414 5.7678572e-22 0.0044638866 -3.323676e-22 1.1295952e-40)
(0.013159641 -0.0072014316 -9.7909812e-22 0.0043082404 6.2639677e-22 1.3779303e-40)
(0.012681828 -0.0069157659 -2.1653402e-22 0.0041427628 6.446425e-23 8.4139045e-40)
(0.011903588 -0.0065814052 1.2668465e-21 0.0040066184 -7.5435115e-22 3.2530064e-40)
(0.00010917979 -0.00012679078 -1.1843903e-23 0.00016046904 -1.0807373e-23 7.7772201e-41)
(0.00073739222 -0.00087823881 -1.4811069e-21 0.0010562379 1.5677673e-21 1.1199645e-38)
(0.0015425131 -0.0017768745 -1.1899517e-21 0.0020598767 1.2772603e-21 1.6982021e-38)
(0.0026678925 -0.0027643593 2.1879686e-21 0.0028992897 -2.1056647e-21 9.8868072e-39)
(0.0039424346 -0.0037360619 1.777055e-21 0.0036030195 -1.7665508e-21 4.1517635e-39)
(0.0052962385 -0.0046429822 1.5253568e-21 0.0041626696 -1.2698329e-21 1.6366102e-39)
(0.0066789917 -0.0054579371 -1.3387284e-22 0.0045833616 1.6920294e-22 7.7609226e-40)
(0.0080335627 -0.0061643531 -1.3997392e-21 0.0048837 9.503893e-22 4.4711665e-39)