/*--------------------------------*- C++ -*----------------------------------*\
| =========                 |                                                 |
| \\      /  F ield         | OpenFOAM: The Open Source CFD Toolbox           |
|  \\    /   O peration     | Version:  4.1                                   |
|   \\  /    A nd           | Web:      www.OpenFOAM.org                      |
|    \\/     M anipulation  |                                                 |
\*---------------------------------------------------------------------------*/
FoamFile
{
    version     2.0;
    format      ascii;
    class       volScalarField;
    location    "19";
    object      p;
}
// * * * * * * * * * * * * * * * * * * * * * * * * * * * * * * * * * * * * * //

dimensions      [0 2 -2 0 0 0 0];

internalField   nonuniform List<scalar> 
1000
(
1.52288
1.5067427
1.4908062
1.4750218
1.4593408
1.443729
1.4281659
1.4126405
1.3971459
1.3816774
1.3662306
1.3508022
1.3353895
1.3199905
1.3046037
1.289228
1.2738625
1.2585062
1.2431583
1.2278183
1.2124855
1.1971594
1.1818394
1.1665252
1.1512163
1.1359123
1.1206129
1.1053179
1.0900268
1.0747395
1.0594557
1.0441751
1.0288976
1.0136229
0.99835083
0.98308128
0.96781406
0.95254901
0.937286
0.92202489
0.90676556
0.8915079
0.8762518
0.86099716
0.84574389
0.83049189
0.8152411
0.79999142
0.78474279
0.76949514
0.7542484
0.73900253
0.72375745
0.70851313
0.6932695
0.67802654
0.66278418
0.6475424
0.63230115
0.6170604
0.60182011
0.58658027
0.57134083
0.55610176
0.54086306
0.52562468
0.51038661
0.49514884
0.47991132
0.46467406
0.44943704
0.43420023
0.41896362
0.4037272
0.38849095
0.37325487
0.35801895
0.34278316
0.3275475
0.31231197
0.29707655
0.28184124
0.26660603
0.2513709
0.23613586
0.2209009
0.20566602
0.1904312
0.17519644
0.15996174
0.1447271
0.1294925
0.11425795
0.099023446
0.083788979
0.068554549
0.053320152
0.038085785
0.02285145
0.0076171314
1.5227106
1.5065551
1.4907439
1.4750644
1.4594174
1.4437969
1.4282171
1.4126809
1.3971814
1.3817098
1.3662597
1.3508278
1.3354117
1.32001
1.3046212
1.2892438
1.2738769
1.2585193
1.2431704
1.2278294
1.2124958
1.1971688
1.1818482
1.1665333
1.1512238
1.1359193
1.1206195
1.105324
1.0900325
1.0747448
1.0594606
1.0441797
1.0289018
1.0136269
0.99835456
0.98308477
0.96781731
0.95255205
0.93728883
0.92202753
0.90676803
0.89151021
0.87625396
0.86099917
0.84574577
0.83049365
0.81524273
0.79999295
0.78474421
0.76949647
0.75424965
0.73900369
0.72375853
0.70851414
0.69327044
0.67802741
0.66278499
0.64754315
0.63230185
0.61706105
0.60182073
0.58658084
0.57134136
0.55610226
0.54086352
0.52562511
0.51038701
0.4951492
0.47991167
0.46467438
0.44943733
0.4342005
0.41896387
0.40372743
0.38849117
0.37325508
0.35801913
0.34278333
0.32754767
0.31231212
0.29707669
0.28184137
0.26660614
0.25137101
0.23613596
0.220901
0.2056661
0.19043127
0.17519651
0.15996181
0.14472716
0.12949256
0.114258
0.099023493
0.083789023
0.068554589
0.053320189
0.038085818
0.02285148
0.0076171474
1.5223979
1.5061651
1.4905264
1.4750343
1.4594776
1.4438649
1.4282639
1.4127112
1.3972062
1.3817343
1.3662838
1.3508495
1.3354305
1.320026
1.3046352
1.2892563
1.2738882
1.2585296
1.2431797
1.2278379
1.2125035
1.197176
1.1818547
1.1665393
1.1512294
1.1359245
1.1206243
1.1053284
1.0900366
1.0747486
1.0594642
1.044183
1.0289049
1.0136297
0.99835724
0.98308726
0.96781964
0.95255422
0.93729086
0.92202943
0.9067698
0.89151186
0.87625549
0.86100061
0.84574711
0.8304949
0.8152439
0.79999404
0.78474523
0.76949742
0.75425053
0.73900451
0.7237593
0.70851485
0.69327111
0.67802804
0.66278558
0.6475437
0.63230236
0.61706153
0.60182117
0.58658125
0.57134174
0.55610261
0.54086385
0.52562542
0.5103873
0.49514947
0.47991191
0.46467461
0.44943754
0.4342007
0.41896406
0.40372761
0.38849133
0.37325522
0.35801927
0.34278346
0.32754778
0.31231223
0.29707679
0.28184146
0.26660623
0.25137109
0.23613604
0.22090106
0.20566616
0.19043133
0.17519657
0.15996186
0.1447272
0.1294926
0.11425804
0.099023529
0.083789056
0.068554619
0.053320217
0.038085842
0.022851498
0.0076171588
1.5220814
1.5057377
1.4902483
1.4749569
1.459517
1.443929
1.4283107
1.4127404
1.3972295
1.3817586
1.366309
1.3508734
1.3354513
1.3200439
1.3046506
1.2892701
1.2739006
1.2585408
1.2431899
1.2278471
1.2125119
1.1971836
1.1818617
1.1665458
1.1512353
1.13593
1.1206293
1.1053331
1.090041
1.0747527
1.0594679
1.0441865
1.0289082
1.0136328
0.99836008
0.98308991
0.96782211
0.95255653
0.93729301
0.92203144
0.90677168
0.89151361
0.87625714
0.86100214
0.84574854
0.83049624
0.81524515
0.79999521
0.78474633
0.76949844
0.75425149
0.73900541
0.72376014
0.70851563
0.69327184
0.67802872
0.66278621
0.64754429
0.63230291
0.61706204
0.60182165
0.58658169
0.57134216
0.556103
0.54086421
0.52562576
0.51038761
0.49514976
0.47991219
0.46467487
0.44943778
0.43420092
0.41896426
0.4037278
0.38849151
0.37325539
0.35801942
0.3427836
0.32754792
0.31231235
0.29707691
0.28184157
0.26660633
0.25137118
0.23613612
0.22090114
0.20566624
0.1904314
0.17519663
0.15996192
0.14472726
0.12949265
0.11425809
0.099023572
0.083789095
0.068554656
0.053320249
0.038085873
0.022851519
0.0076171803
1.5218888
1.5054679
1.490061
1.474895
1.4595355
1.4439687
1.4283415
1.4127596
1.3972446
1.3817746
1.3663262
1.35089
1.3354662
1.3200568
1.304662
1.2892803
1.2739098
1.2585492
1.2431976
1.2278541
1.2125182
1.1971894
1.1818671
1.1665507
1.1512399
1.1359342
1.1206333
1.1053367
1.0900444
1.0747558
1.0594709
1.0441892
1.0289107
1.0136352
0.9983623
0.98309198
0.96782404
0.95255833
0.9372947
0.92203302
0.90677315
0.89151499
0.87625842
0.86100335
0.84574967
0.83049729
0.81524614
0.79999613
0.78474719
0.76949925
0.75425224
0.73900611
0.7237608
0.70851625
0.69327242
0.67802925
0.66278671
0.64754476
0.63230335
0.61706245
0.60182203
0.58658205
0.57134249
0.55610331
0.5408645
0.52562603
0.51038787
0.49515
0.47991241
0.46467507
0.44943797
0.4342011
0.41896443
0.40372795
0.38849165
0.37325552
0.35801955
0.34278372
0.32754802
0.31231245
0.297077
0.28184165
0.26660641
0.25137126
0.23613619
0.22090121
0.2056663
0.19043146
0.17519668
0.15996196
0.1447273
0.12949269
0.11425813
0.099023608
0.083789127
0.068554687
0.053320275
0.038085899
0.022851538
0.0076172008
1.5218888
1.5054679
1.490061
1.474895
1.4595355
1.4439687
1.4283415
1.4127595
1.3972446
1.3817746
1.3663262
1.35089
1.3354662
1.3200568
1.304662
1.2892803
1.2739098
1.2585492
1.2431976
1.2278541
1.2125182
1.1971894
1.1818671
1.1665508
1.1512399
1.1359342
1.1206333
1.1053367
1.0900444
1.0747558
1.0594709
1.0441892
1.0289107
1.0136352
0.9983623
0.98309198
0.96782404
0.95255833
0.9372947
0.92203302
0.90677315
0.89151499
0.87625842
0.86100335
0.84574967
0.83049729
0.81524614
0.79999613
0.78474719
0.76949925
0.75425224
0.73900611
0.7237608
0.70851625
0.69327242
0.67802925
0.66278671
0.64754476
0.63230335
0.61706245
0.60182203
0.58658205
0.57134249
0.55610331
0.5408645
0.52562603
0.51038787
0.49515
0.47991241
0.46467507
0.44943797
0.4342011
0.41896443
0.40372795
0.38849165
0.37325552
0.35801955
0.34278372
0.32754802
0.31231245
0.297077
0.28184165
0.26660641
0.25137126
0.23613619
0.22090121
0.2056663
0.19043146
0.17519668
0.15996196
0.1447273
0.12949269
0.11425813
0.099023608
0.083789127
0.068554687
0.053320275
0.0380859
0.022851538
0.0076172011
1.5220814
1.5057378
1.4902484
1.4749569
1.459517
1.4439289
1.4283107
1.4127404
1.3972295
1.3817586
1.366309
1.3508734
1.3354513
1.3200439
1.3046506
1.2892701
1.2739006
1.2585408
1.2431899
1.2278471
1.2125119
1.1971836
1.1818617
1.1665458
1.1512353
1.13593
1.1206293
1.1053331
1.090041
1.0747527
1.0594679
1.0441865
1.0289082
1.0136328
0.99836008
0.98308991
0.96782211
0.95255653
0.93729302
0.92203144
0.90677168
0.89151361
0.87625714
0.86100214
0.84574854
0.83049624
0.81524515
0.79999521
0.78474633
0.76949844
0.75425149
0.7390054
0.72376014
0.70851563
0.69327184
0.67802872
0.66278621
0.64754429
0.63230291
0.61706204
0.60182165
0.58658169
0.57134216
0.556103
0.54086421
0.52562576
0.51038761
0.49514976
0.47991219
0.46467487
0.44943778
0.43420092
0.41896426
0.4037278
0.38849151
0.37325539
0.35801942
0.3427836
0.32754792
0.31231235
0.29707691
0.28184157
0.26660633
0.25137118
0.23613612
0.22090114
0.20566624
0.1904314
0.17519663
0.15996192
0.14472726
0.12949265
0.11425809
0.099023573
0.083789095
0.068554657
0.053320249
0.038085874
0.02285152
0.0076171811
1.5223979
1.5061651
1.4905264
1.4750343
1.4594776
1.4438649
1.4282638
1.4127111
1.3972062
1.3817343
1.3662838
1.3508495
1.3354305
1.320026
1.3046352
1.2892563
1.2738882
1.2585296
1.2431798
1.2278379
1.2125035
1.197176
1.1818547
1.1665394
1.1512294
1.1359245
1.1206243
1.1053284
1.0900366
1.0747486
1.0594642
1.044183
1.0289049
1.0136297
0.99835724
0.98308726
0.96781964
0.95255422
0.93729086
0.92202943
0.9067698
0.89151186
0.87625549
0.86100061
0.84574711
0.8304949
0.8152439
0.79999404
0.78474523
0.76949742
0.75425053
0.73900451
0.7237593
0.70851485
0.69327111
0.67802804
0.66278558
0.6475437
0.63230236
0.61706153
0.60182117
0.58658125
0.57134174
0.55610261
0.54086385
0.52562542
0.5103873
0.49514947
0.47991191
0.46467461
0.44943754
0.4342007
0.41896406
0.4037276
0.38849133
0.37325522
0.35801927
0.34278346
0.32754778
0.31231223
0.29707679
0.28184146
0.26660623
0.25137109
0.23613604
0.22090106
0.20566616
0.19043133
0.17519657
0.15996186
0.1447272
0.1294926
0.11425804
0.09902353
0.083789057
0.06855462
0.053320217
0.038085843
0.022851499
0.0076171595
1.5227106
1.5065551
1.490744
1.4750644
1.4594174
1.4437969
1.428217
1.4126809
1.3971814
1.3817098
1.3662597
1.3508278
1.3354117
1.32001
1.3046212
1.2892439
1.2738769
1.2585193
1.2431704
1.2278294
1.2124958
1.1971688
1.1818482
1.1665333
1.1512238
1.1359193
1.1206195
1.105324
1.0900325
1.0747448
1.0594606
1.0441797
1.0289018
1.0136269
0.99835456
0.98308477
0.96781731
0.95255205
0.93728883
0.92202754
0.90676803
0.89151021
0.87625396
0.86099917
0.84574577
0.83049365
0.81524273
0.79999295
0.78474421
0.76949647
0.75424965
0.73900369
0.72375853
0.70851413
0.69327044
0.67802741
0.66278499
0.64754315
0.63230185
0.61706105
0.60182073
0.58658084
0.57134136
0.55610226
0.54086352
0.52562511
0.51038701
0.4951492
0.47991167
0.46467438
0.44943733
0.4342005
0.41896387
0.40372743
0.38849117
0.37325508
0.35801913
0.34278333
0.32754767
0.31231212
0.29707669
0.28184137
0.26660614
0.25137101
0.23613596
0.220901
0.2056661
0.19043128
0.17519651
0.15996181
0.14472716
0.12949256
0.114258
0.099023494
0.083789024
0.068554589
0.05332019
0.038085818
0.022851481
0.0076171479
1.52288
1.5067427
1.4908062
1.4750219
1.4593408
1.4437289
1.4281659
1.4126405
1.3971459
1.3816774
1.3662306
1.3508022
1.3353895
1.3199905
1.3046037
1.289228
1.2738625
1.2585062
1.2431584
1.2278183
1.2124855
1.1971594
1.1818394
1.1665252
1.1512163
1.1359123
1.120613
1.1053179
1.0900268
1.0747395
1.0594557
1.0441751
1.0288976
1.0136229
0.99835083
0.98308128
0.96781406
0.95254901
0.937286
0.92202489
0.90676556
0.8915079
0.8762518
0.86099716
0.84574389
0.83049189
0.8152411
0.79999142
0.78474279
0.76949514
0.7542484
0.73900253
0.72375745
0.70851313
0.6932695
0.67802654
0.66278418
0.6475424
0.63230115
0.6170604
0.60182011
0.58658027
0.57134082
0.55610176
0.54086306
0.52562468
0.51038661
0.49514883
0.47991132
0.46467406
0.44943704
0.43420023
0.41896362
0.4037272
0.38849095
0.37325487
0.35801895
0.34278316
0.3275475
0.31231197
0.29707655
0.28184124
0.26660603
0.2513709
0.23613586
0.2209009
0.20566602
0.1904312
0.17519644
0.15996174
0.1447271
0.1294925
0.11425795
0.099023446
0.08378898
0.068554549
0.053320152
0.038085785
0.02285145
0.0076171316
)
;

boundaryField
{
    top
    {
        type            zeroGradient;
    }
    inlet
    {
        type            fixedValue;
        value           uniform 1.53103;
    }
    outlet
    {
        type            fixedValue;
        value           uniform 0;
    }
    bottom
    {
        type            zeroGradient;
    }
    back
    {
        type            empty;
    }
    front
    {
        type            empty;
    }
}


// ************************************************************************* //
