/*--------------------------------*- C++ -*----------------------------------*\
| =========                 |                                                 |
| \\      /  F ield         | OpenFOAM: The Open Source CFD Toolbox           |
|  \\    /   O peration     | Version:  4.1                                   |
|   \\  /    A nd           | Web:      www.OpenFOAM.org                      |
|    \\/     M anipulation  |                                                 |
\*---------------------------------------------------------------------------*/
FoamFile
{
    version     2.0;
    format      ascii;
    class       surfaceScalarField;
    location    "19";
    object      phi;
}
// * * * * * * * * * * * * * * * * * * * * * * * * * * * * * * * * * * * * * //

dimensions      [0 3 -1 0 0 0 0];

internalField   nonuniform List<scalar> 
1890
(
0.0030953638
1.2078046e-06
0.0030912728
4.0918691e-06
0.0030861813
5.0918427e-06
0.0030815603
4.6208402e-06
0.0030778802
3.6797604e-06
0.0030749949
2.8850664e-06
0.0030726299
2.3647067e-06
0.0030705997
2.0299474e-06
0.0030688191
1.7803461e-06
0.0030672517
1.5671721e-06
0.0030658703
1.3812394e-06
0.0030646451
1.2250433e-06
0.0030635472
1.0977163e-06
0.0030625534
9.9364066e-07
0.0030616472
9.0611981e-07
0.0030608169
8.3015418e-07
0.0030600539
7.6289648e-07
0.003059351
7.0284866e-07
0.0030587019
6.490247e-07
0.0030581013
6.0056309e-07
0.0030575445
5.5667914e-07
0.0030570277
5.1671527e-07
0.0030565475
4.8015857e-07
0.0030561009
4.4661065e-07
0.0030556851
4.1574949e-07
0.0030552977
3.8729949e-07
0.0030549367
3.6102146e-07
0.0030546
3.3670488e-07
0.0030542858
3.1416802e-07
0.0030539925
2.932507e-07
0.0030537186
2.7381407e-07
0.0030534629
2.5573323e-07
0.003053224
2.3889893e-07
0.0030530007
2.2321121e-07
0.0030527921
2.0858253e-07
0.0030525972
1.9493166e-07
0.003052415
1.8218751e-07
0.0030522447
1.7028307e-07
0.0030520855
1.5915981e-07
0.0030519368
1.4876166e-07
0.0030517977
1.3903984e-07
0.0030516678
1.2994692e-07
0.0030515463
1.2144187e-07
0.0030514328
1.1348409e-07
0.0030513268
1.0603884e-07
0.0030512277
9.9071094e-08
0.0030511351
9.2551227e-08
0.0030510487
8.6448815e-08
0.0030509679
8.073845e-08
0.0030508925
7.5393576e-08
0.0030508222
7.0392349e-08
0.0030507564
6.5711435e-08
0.0030506951
6.1331992e-08
0.0030506379
5.7233473e-08
0.0030505845
5.3399622e-08
0.0030505347
4.9812238e-08
0.0030504882
4.6457272e-08
0.0030504449
4.3318597e-08
0.0030504045
4.0384092e-08
0.0030503669
3.763938e-08
0.0030503318
3.5074003e-08
0.0030502991
3.2675158e-08
0.0030502687
3.0433852e-08
0.0030502403
2.8338613e-08
0.0030502139
2.6381711e-08
0.0030501894
2.455289e-08
0.0030501665
2.2845548e-08
0.0030501453
2.1250443e-08
0.0030501255
1.9761952e-08
0.0030501072
1.8371769e-08
0.0030500901
1.7075156e-08
0.0030500742
1.5864572e-08
0.0030500595
1.4736056e-08
0.0030500458
1.3682771e-08
0.0030500331
1.2701481e-08
0.0030500213
1.1785889e-08
0.0030500104
1.0933428e-08
0.0030500003
1.0138259e-08
0.0030499909
9.3985105e-09
0.0030499821
8.7085804e-09
0.0030499741
8.0673558e-09
0.0030499666
7.4692721e-09
0.0030499597
6.9141925e-09
0.0030499533
6.396152e-09
0.0030499474
5.9163694e-09
0.0030499419
5.4678939e-09
0.0030499369
5.054043e-09
0.0030499322
4.6657985e-09
0.0030499279
4.3097838e-09
0.0030499239
3.9733376e-09
0.0030499203
3.6682996e-09
0.0030499169
3.3760045e-09
0.0030499138
3.1159842e-09
0.0030499109
2.8608877e-09
0.0030499083
2.6394981e-09
0.0030499058
2.4162998e-09
0.0030499036
2.225666e-09
0.0030499016
2.0412498e-09
0.0030498997
1.8792914e-09
1.8784344e-09
0.0078698917
1.3321409e-06
0.0078682034
5.7813204e-06
0.007865151
8.1447313e-06
0.0078615741
8.1976966e-06
0.0078580812
7.1722518e-06
0.0078548403
6.125757e-06
0.007851826
5.3787206e-06
0.0078490031
4.8526565e-06
0.0078463698
4.4134806e-06
0.0078439378
3.999012e-06
0.0078417086
3.6102364e-06
0.0078396696
3.2639517e-06
0.007837801
2.9661592e-06
0.0078360836
2.710921e-06
0.0078345012
2.4883831e-06
0.0078330407
2.2906394e-06
0.0078316905
2.1129903e-06
0.0078304405
1.9527347e-06
0.0078292816
1.8078512e-06
0.0078282057
1.676445e-06
0.0078272056
1.5567468e-06
0.007826275
1.4472423e-06
0.0078254084
1.3467076e-06
0.0078246008
1.25416e-06
0.0078238478
1.1687807e-06
0.0078231452
1.0898662e-06
0.0078224894
1.0167995e-06
0.007821877
9.4904177e-07
0.007821305
8.8611965e-07
0.0078207706
8.2761937e-07
0.0078202712
7.7317331e-07
0.0078198045
7.224561e-07
0.0078193682
6.7517424e-07
0.0078189603
6.3106585e-07
0.007818579
5.8989231e-07
0.0078182225
5.5143964e-07
0.0078178892
5.1551104e-07
0.0078175775
4.8192933e-07
0.0078172861
4.5053005e-07
0.0078170137
4.2116464e-07
0.0078167591
3.9369404e-07
0.007816521
3.6799254e-07
0.0078162985
3.4394156e-07
0.0078160905
3.2143377e-07
0.0078158962
3.003672e-07
0.0078157146
2.8064972e-07
0.007815545
2.6219316e-07
0.0078153865
2.4491791e-07
0.0078152385
2.2874725e-07
0.0078151003
2.1361226e-07
0.0078149712
1.9944598e-07
0.0078148507
1.8618842e-07
0.0078147383
1.7378088e-07
0.0078146333
1.6217113e-07
0.0078145354
1.5130767e-07
0.0078144441
1.4114482e-07
0.0078143589
1.3163722e-07
0.0078142795
1.2274499e-07
0.0078142055
1.144282e-07
0.0078141364
1.0665191e-07
0.0078140721
9.9380783e-08
0.0078140122
9.2584349e-08
0.0078139564
8.623142e-08
0.0078139045
8.0295266e-08
0.0078138561
7.4748243e-08
0.0078138111
6.9567046e-08
0.0078137692
6.472725e-08
0.0078137302
6.0208417e-08
0.007813694
5.5988859e-08
0.0078136603
5.2050784e-08
0.007813629
4.8375038e-08
0.0078136
4.4945997e-08
0.0078135729
4.1746673e-08
0.0078135479
3.876344e-08
0.0078135246
3.5981385e-08
0.007813503
3.3388423e-08
0.0078134829
3.0971493e-08
0.0078134644
2.8719828e-08
0.0078134471
2.6622335e-08
0.0078134312
2.4668966e-08
0.0078134164
2.2850689e-08
0.0078134027
2.1157629e-08
0.00781339
1.958348e-08
0.0078133783
1.8117297e-08
0.0078133675
1.6756554e-08
0.0078133575
1.5487475e-08
0.0078133482
1.4313702e-08
0.0078133397
1.3215136e-08
0.0078133318
1.2205731e-08
0.0078133245
1.1253194e-08
0.0078133178
1.0389734e-08
0.0078133116
9.5599659e-09
0.0078133059
8.8284389e-09
0.0078133006
8.0969386e-09
0.0078132958
7.4892741e-09
0.0078132914
6.8288926e-09
0.0078132873
6.3522945e-09
0.0078132836
5.7379308e-09
0.00781328
5.4486425e-09
4.8488267e-09
0.011326924
9.8117766e-07
0.011327836
4.8707134e-06
0.011328597
7.383528e-06
0.011328916
7.8791094e-06
0.011328906
7.1811588e-06
0.011328689
6.3430712e-06
0.011328313
5.7543146e-06
0.011327808
5.3576212e-06
0.011327208
5.0131496e-06
0.011326551
4.6553631e-06
0.011325868
4.293297e-06
0.011325178
3.9542244e-06
0.011324492
3.6517999e-06
0.011323819
3.3841297e-06
0.011323164
3.1433864e-06
0.011322531
2.9231931e-06
0.011321924
2.7203103e-06
0.011321343
2.5332827e-06
0.01132079
2.3609875e-06
0.011320264
2.2021121e-06
0.011319766
2.0552619e-06
0.011319294
1.9191785e-06
0.011318848
1.7928244e-06
0.011318426
1.6753479e-06
0.011318029
1.566018e-06
0.011317655
1.4641796e-06
0.011317302
1.3692399e-06
0.011316971
1.2806616e-06
0.011316659
1.1979631e-06
0.011316366
1.120709e-06
0.01131609
1.0485066e-06
0.011315832
9.8099672e-07
0.011315589
9.178524e-07
0.011315361
8.5877205e-07
0.011315148
8.0348036e-07
0.011314947
7.5172196e-07
0.01131476
7.032632e-07
0.011314584
6.5788602e-07
0.011314419
6.1539045e-07
0.011314264
5.7558892e-07
0.01131412
5.3830928e-07
0.011313984
5.0338923e-07
0.011313858
4.7067977e-07
0.011313739
4.400398e-07
0.011313628
4.1133991e-07
0.011313524
3.8445694e-07
0.011313427
3.5927808e-07
0.011313336
3.3569548e-07
0.011313251
3.1361061e-07
0.011313172
2.9292885e-07
0.011313098
2.735639e-07
0.011313029
2.5543254e-07
0.011312964
2.3845916e-07
0.011312904
2.2257048e-07
0.011312847
2.0770014e-07
0.011312795
1.937835e-07
0.011312746
1.8076233e-07
0.0113127
1.685796e-07
0.011312657
1.5718416e-07
0.011312617
1.4652558e-07
0.01131258
1.36559e-07
0.011312545
1.2723987e-07
0.011312513
1.1852876e-07
0.011312483
1.1038625e-07
0.011312455
1.027778e-07
0.011312429
9.5668516e-08
0.011312404
8.9028101e-08
0.011312382
8.2825629e-08
0.011312361
7.7034609e-08
0.011312341
7.162764e-08
0.011312323
6.6581559e-08
0.011312306
6.1871984e-08
0.01131229
5.7478808e-08
0.011312276
5.3380297e-08
0.011312262
4.9559073e-08
0.01131225
4.5995547e-08
0.011312238
4.2675011e-08
0.011312227
3.9579555e-08
0.011312217
3.6697129e-08
0.011312208
3.4010742e-08
0.011312199
3.1511465e-08
0.011312191
2.9182185e-08
0.011312183
2.7018026e-08
0.011312177
2.4999816e-08
0.01131217
2.3128958e-08
0.011312164
2.1380843e-08
0.011312159
1.9767445e-08
0.011312154
1.8252216e-08
0.011312149
1.6866351e-08
0.011312145
1.5549129e-08
0.011312141
1.4367622e-08
0.011312137
1.3213344e-08
0.011312134
1.2221213e-08
0.011312131
1.1190471e-08
0.011312128
1.0385963e-08
0.011312125
9.4326159e-09
0.011312123
8.8378769e-09
0.011312121
7.9077386e-09
0.011312118
7.5777198e-09
6.649569e-09
0.013567127
5.0443402e-07
0.013569317
2.6815072e-06
0.013572477
4.2241846e-06
0.013575706
4.6499273e-06
0.013578566
4.3202935e-06
0.013581048
3.8613974e-06
0.013583252
3.5494649e-06
0.013585254
3.3553724e-06
0.013587079
3.1885844e-06
0.013588731
3.0027511e-06
0.013590221
2.8037967e-06
0.013591563
2.6115636e-06
0.013592778
2.4369696e-06
0.013593882
2.2800744e-06
0.013594889
2.1365278e-06
0.013595809
2.0027622e-06
0.013596652
1.8772741e-06
0.013597425
1.759691e-06
0.013598137
1.6497687e-06
0.013598792
1.5470364e-06
0.013599396
1.4508926e-06
0.013599954
1.3607714e-06
0.013600471
1.2762106e-06
0.013600949
1.196837e-06
0.013601393
1.1223234e-06
0.013601805
1.0523686e-06
0.013602187
9.8668561e-07
0.013602543
9.2500936e-07
0.013602874
8.6709048e-07
0.013603182
8.1270217e-07
0.013603469
7.616291e-07
0.013603736
7.1367447e-07
0.013603985
6.6864845e-07
0.013604218
6.2637813e-07
0.013604434
5.8669553e-07
0.013604637
5.4944869e-07
0.013604825
5.1448873e-07
0.013605002
4.8168181e-07
0.013605166
4.5089565e-07
0.01360532
4.2201238e-07
0.013605463
3.9491436e-07
0.013605597
3.6949768e-07
0.013605722
3.4565761e-07
0.013605839
3.233027e-07
0.013605948
3.0233972e-07
0.013606049
2.8268812e-07
0.013606144
2.6426481e-07
0.013606233
2.4699904e-07
0.013606316
2.3081677e-07
0.013606393
2.1565579e-07
0.013606465
2.0145007e-07
0.013606533
1.881451e-07
0.013606595
1.75682e-07
0.013606654
1.6401297e-07
0.013606708
1.5308541e-07
0.013606759
1.428576e-07
0.013606807
1.3328258e-07
0.013606851
1.2432389e-07
0.013606892
1.1593952e-07
0.013606931
1.0809777e-07
0.013606967
1.0076109e-07
0.013607
9.3901903e-08
0.013607031
8.7486537e-08
0.01360706
8.1491164e-08
0.013607087
7.5885634e-08
0.013607112
7.0649314e-08
0.013607135
6.5755114e-08
0.013607157
6.1185342e-08
0.013607177
5.6915692e-08
0.013607195
5.2930935e-08
0.013607213
4.9209193e-08
0.013607229
4.5737505e-08
0.013607244
4.2496249e-08
0.013607258
3.9474282e-08
0.013607271
3.6654003e-08
0.013607283
3.4025882e-08
0.013607294
3.1574329e-08
0.013607304
2.9290883e-08
0.013607314
2.7162001e-08
0.013607323
2.5179831e-08
0.013607331
2.3333328e-08
0.013607338
2.1614173e-08
0.013607345
2.0014714e-08
0.013607352
1.8524586e-08
0.013607358
1.7141637e-08
0.013607363
1.585016e-08
0.013607368
1.4657572e-08
0.013607373
1.3536895e-08
0.013607377
1.2513312e-08
0.013607381
1.1536918e-08
0.013607385
1.066627e-08
0.013607389
9.8067286e-09
0.013607392
9.0796069e-09
0.013607395
8.3061637e-09
0.013607397
7.7239362e-09
0.0136074
7.0011695e-09
0.013607402
6.5812409e-09
0.013607404
5.8637982e-09
0.013607406
5.6382096e-09
4.9456537e-09
0.01466682
3.1617711e-11
0.014669503
9.4240737e-11
0.014673727
3.3962392e-11
0.014678377
-1.9582022e-11
0.014682696
-2.6164339e-11
0.014686557
2.9076305e-11
0.014690107
9.1027573e-11
0.014693462
1.2900831e-10
0.01469665
1.3917055e-10
0.014699653
1.415527e-10
0.014702456
1.4448837e-10
0.014705067
1.4989632e-10
0.014707504
1.5165134e-10
0.014709784
1.4978405e-10
0.01471192
1.4321064e-10
0.014713923
1.3445229e-10
0.0147158
1.2366261e-10
0.014717559
1.1202221e-10
0.014719209
9.9612641e-11
0.014720756
8.684207e-11
0.014722206
7.4216424e-11
0.014723567
6.1705769e-11
0.014724843
5.0124686e-11
0.01472604
3.895521e-11
0.014727162
2.91111e-11
0.014728215
1.9654016e-11
0.014729201
1.1705344e-11
0.014730126
4.2622492e-12
0.014730993
-1.7008244e-12
0.014731806
-7.90174e-12
0.014732568
-1.2293986e-11
0.014733281
-1.6724877e-11
0.01473395
-1.9638686e-11
0.014734576
-2.2906953e-11
0.014735163
-2.4721474e-11
0.014735713
-2.7011419e-11
0.014736227
-2.786892e-11
0.014736709
-2.9471776e-11
0.01473716
-2.9723636e-11
0.014737582
-3.0766894e-11
0.014737977
-3.0454885e-11
0.014738346
-3.1148706e-11
0.014738692
-3.0553934e-11
0.014739015
-3.0950188e-11
0.014739317
-3.0032555e-11
0.0147396
-3.0276784e-11
0.014739864
-2.9264163e-11
0.014740112
-2.9355708e-11
0.014740342
-2.8153226e-11
0.014740558
-2.819517e-11
0.01474076
-2.6995826e-11
0.014740948
-2.695839e-11
0.014741123
-2.5635193e-11
0.014741287
-2.5596839e-11
0.014741441
-2.4323748e-11
0.014741583
-2.423928e-11
0.014741717
-2.2872311e-11
0.014741841
-2.2806782e-11
0.014741957
-2.1509833e-11
0.014742065
-2.1410714e-11
0.014742166
-2.0031597e-11
0.01474226
-1.9956951e-11
0.014742347
-1.8654389e-11
0.014742429
-1.8549171e-11
0.014742505
-1.716815e-11
0.014742575
-1.7087461e-11
0.014742641
-1.5784661e-11
0.014742702
-1.5674326e-11
0.014742759
-1.4295863e-11
0.014742812
-1.4211007e-11
0.014742861
-1.2913863e-11
0.014742907
-1.2804068e-11
0.01474295
-1.1438715e-11
0.014742989
-1.1361623e-11
0.014743026
-1.0087347e-11
0.01474306
-9.9991598e-12
0.014743092
-8.6738231e-12
0.014743121
-8.6373669e-12
0.014743148
-7.4245308e-12
0.014743173
-7.4064722e-12
0.014743197
-6.1749374e-12
0.014743218
-6.2480556e-12
0.014743238
-5.168708e-12
0.014743257
-5.3173303e-12
0.014743274
-4.2745486e-12
0.01474329
-4.5886364e-12
0.014743304
-3.764255e-12
0.014743318
-4.2536612e-12
0.01474333
-3.5552948e-12
0.014743342
-4.3432968e-12
0.014743353
-4.0882803e-12
0.014743362
-5.4755847e-12
0.014743372
-5.8162884e-12
0.01474338
-7.759052e-12
0.014743388
-8.2644899e-12
0.014743395
-9.3091146e-12
0.014743401
-9.8693386e-12
0.014743407
-1.0171774e-11
0.014743413
-1.3272442e-11
-1.4554675e-11
0.014666819
-5.0448876e-07
0.014669502
-2.6818254e-06
0.014673727
-4.2245135e-06
0.014678376
-4.6501169e-06
0.014682696
-4.3203342e-06
0.014686557
-3.8613565e-06
0.014690106
-3.5493628e-06
0.014693461
-3.3552218e-06
0.01469665
-3.1883993e-06
0.014699652
-3.0025371e-06
0.014702456
-2.8035609e-06
0.014705067
-2.6113115e-06
0.014707504
-2.4367105e-06
0.014709784
-2.2798157e-06
0.01471192
-2.1362773e-06
0.014713923
-2.0025245e-06
0.0147158
-1.8770537e-06
0.014717559
-1.7594905e-06
0.014719209
-1.64959e-06
0.014720756
-1.5468803e-06
0.014722207
-1.4507593e-06
0.014723567
-1.3606605e-06
0.014724843
-1.2761209e-06
0.01472604
-1.1967674e-06
0.014727162
-1.122272e-06
0.014728215
-1.0523341e-06
0.014729201
-9.8666582e-07
0.014730126
-9.2500299e-07
0.014730993
-8.6709544e-07
0.014731806
-8.1271776e-07
0.014732568
-7.6165304e-07
0.014733281
-7.1370602e-07
0.01473395
-6.6868567e-07
0.014734576
-6.2642077e-07
0.014735163
-5.8674178e-07
0.014735713
-5.4949851e-07
0.014736227
-5.1454055e-07
0.014736709
-4.8173592e-07
0.01473716
-4.5095058e-07
0.014737582
-4.2206855e-07
0.014737977
-3.9497046e-07
0.014738346
-3.6955439e-07
0.014738692
-3.4571366e-07
0.014739015
-3.233588e-07
0.014739318
-3.0239471e-07
0.0147396
-2.827429e-07
0.014739865
-2.6431822e-07
0.014740112
-2.4705194e-07
0.014740342
-2.3086809e-07
0.014740558
-2.1570655e-07
0.01474076
-2.0149915e-07
0.014740948
-1.8819347e-07
0.014741123
-1.7572859e-07
0.014741287
-1.6405887e-07
0.014741441
-1.5312952e-07
0.014741583
-1.4290092e-07
0.014741717
-1.3332407e-07
0.014741841
-1.2436465e-07
0.014741957
-1.1597846e-07
0.014742065
-1.081359e-07
0.014742166
-1.0079738e-07
0.01474226
-9.393745e-08
0.014742347
-8.7520263e-08
0.014742429
-8.1524079e-08
0.014742505
-7.5916702e-08
0.014742575
-7.067964e-08
0.014742641
-6.5783619e-08
0.014742702
-6.1213034e-08
0.014742759
-5.6941539e-08
0.014742812
-5.295604e-08
0.014742861
-4.9232485e-08
0.014742907
-4.5759993e-08
0.01474295
-4.2516911e-08
0.014742989
-3.9494225e-08
0.014743026
-3.6672171e-08
0.01474306
-3.4043294e-08
0.014743091
-3.1589985e-08
0.014743121
-2.9305904e-08
0.014743148
-2.7175358e-08
0.014743173
-2.5192569e-08
0.014743196
-2.3344482e-08
0.014743218
-2.1624901e-08
0.014743238
-2.002403e-08
0.014743257
-1.8533591e-08
0.014743274
-1.7149419e-08
0.01474329
-1.5857951e-08
0.014743304
-1.4664451e-08
0.014743318
-1.3544067e-08
0.01474333
-1.2519947e-08
0.014743342
-1.1544411e-08
0.014743353
-1.067393e-08
0.014743362
-9.8161504e-09
0.014743371
-9.0903449e-09
0.01474338
-8.3197119e-09
0.014743387
-7.7387386e-09
0.014743394
-7.0177946e-09
0.014743401
-6.5986616e-09
0.014743407
-5.8810157e-09
0.014743413
-5.6599023e-09
-4.9689453e-09
0.013567127
-9.8116714e-07
0.013569317
-4.8706319e-06
0.013572477
-7.3834825e-06
0.013575705
-7.8791472e-06
0.013578566
-7.1812176e-06
0.013581047
-6.3431188e-06
0.013583252
-5.7543169e-06
0.013585254
-5.3575813e-06
0.013587079
-5.0130657e-06
0.013588731
-4.6552475e-06
0.013590221
-4.2931523e-06
0.013591563
-3.9540616e-06
0.013592778
-3.6516229e-06
0.013593882
-3.383948e-06
0.013594889
-3.1432044e-06
0.013595809
-2.923018e-06
0.013596652
-2.7201452e-06
0.013597426
-2.5331316e-06
0.013598137
-2.360852e-06
0.013598792
-2.2019935e-06
0.013599396
-2.0551609e-06
0.013599955
-1.9190942e-06
0.013600471
-1.7927571e-06
0.01360095
-1.6752954e-06
0.013601393
-1.5659805e-06
0.013601805
-1.4641542e-06
0.013602188
-1.3692269e-06
0.013602543
-1.2806578e-06
0.013602874
-1.1979693e-06
0.013603182
-1.1207217e-06
0.013603469
-1.048527e-06
0.013603736
-9.8102113e-07
0.013603985
-9.1788259e-07
0.013604218
-8.5880441e-07
0.013604435
-8.0351693e-07
0.013604637
-7.517592e-07
0.013604826
-7.033036e-07
0.013605002
-6.57926e-07
0.013605166
-6.154327e-07
0.01360532
-5.7562993e-07
0.013605463
-5.3835207e-07
0.013605597
-5.0343025e-07
0.013605722
-4.7072212e-07
0.013605839
-4.4007997e-07
0.013605948
-4.1138124e-07
0.013606049
-3.8449588e-07
0.013606144
-3.5931794e-07
0.013606233
-3.3573275e-07
0.013606316
-3.1364882e-07
0.013606393
-2.929644e-07
0.013606465
-2.7360025e-07
0.013606532
-2.5546615e-07
0.013606595
-2.3849364e-07
0.013606654
-2.2260223e-07
0.013606708
-2.0773267e-07
0.013606759
-1.9381325e-07
0.013606807
-1.8079296e-07
0.013606851
-1.6860748e-07
0.013606892
-1.5721282e-07
0.013606931
-1.4655146e-07
0.013606966
-1.3658577e-07
0.013607
-1.2726389e-07
0.013607031
-1.1855359e-07
0.01360706
-1.104083e-07
0.013607087
-1.0280074e-07
0.013607112
-9.5688722e-08
0.013607135
-8.9049109e-08
0.013607156
-8.2843868e-08
0.013607177
-7.7053745e-08
0.013607195
-7.1644045e-08
0.013607213
-6.6598768e-08
0.013607229
-6.1886441e-08
0.013607244
-5.7494171e-08
0.013607258
-5.339296e-08
0.013607271
-4.9572564e-08
0.013607283
-4.6006337e-08
0.013607294
-4.2686755e-08
0.013607304
-3.9588677e-08
0.013607313
-3.6707164e-08
0.013607322
-3.4018196e-08
0.01360733
-3.1520006e-08
0.013607338
-2.9188278e-08
0.013607345
-2.7025234e-08
0.013607351
-2.5004685e-08
0.013607357
-2.3135212e-08
0.013607363
-2.1384979e-08
0.013607368
-1.9773128e-08
0.013607373
-1.8255989e-08
0.013607377
-1.6872124e-08
0.013607381
-1.5553389e-08
0.013607385
-1.4374317e-08
0.013607388
-1.3218821e-08
0.013607391
-1.2229936e-08
0.013607394
-1.1198405e-08
0.013607397
-1.0397377e-08
0.013607399
-9.4434213e-09
0.013607402
-8.849819e-09
0.013607404
-7.9180484e-09
0.013607406
-7.5870615e-09
-6.6597689e-09
0.011326924
-1.3321132e-06
0.011327836
-5.7811507e-06
0.011328597
-8.1445168e-06
0.011328915
-8.1975927e-06
0.011328906
-7.1723152e-06
0.011328689
-6.1259286e-06
0.011328313
-5.3789064e-06
0.011327808
-4.8527952e-06
0.011327208
-4.4135535e-06
0.011326552
-3.9990297e-06
0.011325869
-3.6102145e-06
0.011325178
-3.2639027e-06
0.011324492
-2.9660898e-06
0.011323819
-2.7108372e-06
0.011323164
-2.4882908e-06
0.011322532
-2.2905448e-06
0.011321924
-2.1128983e-06
0.011321344
-1.9526488e-06
0.01132079
-1.8077737e-06
0.011320265
-1.676377e-06
0.011319766
-1.5566892e-06
0.011319294
-1.4471947e-06
0.011318848
-1.3466703e-06
0.011318427
-1.2541319e-06
0.01131803
-1.1687615e-06
0.011317655
-1.0898543e-06
0.011317303
-1.0167947e-06
0.011316971
-9.4904255e-07
0.011316659
-8.8612586e-07
0.011316366
-8.2762937e-07
0.011316091
-7.7318716e-07
0.011315832
-7.2247239e-07
0.011315589
-6.7519322e-07
0.011315362
-6.3108604e-07
0.011315148
-5.8991417e-07
0.011314948
-5.5146198e-07
0.01131476
-5.1553448e-07
0.011314584
-4.8195258e-07
0.011314419
-4.5055386e-07
0.011314265
-4.2118795e-07
0.01131412
-3.9371772e-07
0.011313985
-3.6801538e-07
0.011313858
-3.4396448e-07
0.011313739
-3.2145579e-07
0.011313628
-3.0038931e-07
0.011313524
-2.8067076e-07
0.011313427
-2.6221412e-07
0.011313336
-2.4493784e-07
0.011313252
-2.287672e-07
0.011313172
-2.1363107e-07
0.011313098
-1.994647e-07
0.011313029
-1.8620609e-07
0.011312964
-1.7379857e-07
0.011312904
-1.6218769e-07
0.011312847
-1.5132415e-07
0.011312795
-1.4116027e-07
0.011312745
-1.3165271e-07
0.0113127
-1.2275938e-07
0.011312657
-1.1444253e-07
0.011312617
-1.0666523e-07
0.01131258
-9.9394171e-08
0.011312545
-9.2596642e-08
0.011312513
-8.6243677e-08
0.011312483
-8.030652e-08
0.011312455
-7.4759574e-08
0.011312429
-6.9577293e-08
0.011312404
-6.4737467e-08
0.011312382
-6.0217639e-08
0.011312361
-5.5998162e-08
0.011312341
-5.2059012e-08
0.011312323
-4.8383241e-08
0.011312306
-4.4953218e-08
0.01131229
-4.1753985e-08
0.011312275
-3.8769696e-08
0.011312262
-3.5987638e-08
0.011312249
-3.3393725e-08
0.011312238
-3.0976922e-08
0.011312227
-2.8724251e-08
0.011312217
-2.6626814e-08
0.011312207
-2.4672568e-08
0.011312199
-2.2854506e-08
0.011312191
-2.1160548e-08
0.011312183
-1.9586584e-08
0.011312176
-1.8119672e-08
0.01131217
-1.6759331e-08
0.011312164
-1.5489558e-08
0.011312158
-1.4316242e-08
0.011312153
-1.3217221e-08
0.011312149
-1.2208597e-08
0.011312144
-1.1255719e-08
0.011312141
-1.039315e-08
0.011312137
-9.5630611e-09
0.011312133
-8.8324408e-09
0.01131213
-8.1003633e-09
0.011312127
-7.4941057e-09
0.011312125
-6.8344754e-09
0.011312122
-6.3571514e-09
0.01131212
-5.7415179e-09
0.011312118
-5.4473151e-09
-4.8470942e-09
0.0078698921
-1.2077186e-06
0.0078682037
-4.0917238e-06
0.0078651514
-5.0917138e-06
0.0078615746
-4.6207977e-06
0.0078580818
-3.6798676e-06
0.0078548407
-2.885289e-06
0.0078518264
-2.3649664e-06
0.0078490035
-2.0301677e-06
0.0078463701
-1.7805049e-06
0.007843938
-1.5672749e-06
0.0078417089
-1.3813074e-06
0.0078396698
-1.2250872e-06
0.0078378012
-1.0977442e-06
0.0078360838
-9.936544e-07
0.0078345015
-9.0612398e-07
0.007833041
-8.3015189e-07
0.0078316908
-7.6289153e-07
0.0078304409
-7.0284328e-07
0.007829282
-6.4902021e-07
0.0078282061
-6.0056055e-07
0.007827206
-5.5667837e-07
0.0078262754
-5.1671717e-07
0.0078254088
-4.801622e-07
0.0078246013
-4.4661691e-07
0.0078238482
-4.1575687e-07
0.0078231456
-3.8730906e-07
0.0078224898
-3.6103148e-07
0.0078218774
-3.3671663e-07
0.0078213054
-3.1417953e-07
0.007820771
-2.9326354e-07
0.0078202716
-2.7382621e-07
0.0078198049
-2.5574644e-07
0.0078193686
-2.3891099e-07
0.0078189607
-2.2322412e-07
0.0078185793
-2.0859408e-07
0.0078182228
-1.9494399e-07
0.0078178894
-1.8219827e-07
0.0078175777
-1.7029455e-07
0.0078172863
-1.5916968e-07
0.0078170139
-1.4877229e-07
0.0078167592
-1.3904878e-07
0.0078165212
-1.2995663e-07
0.0078162986
-1.2144992e-07
0.0078160907
-1.1349299e-07
0.0078158963
-1.0604603e-07
0.0078157147
-9.9079164e-08
0.007815545
-9.2557659e-08
0.0078153866
-8.6456204e-08
0.0078152385
-8.0744176e-08
0.0078151003
-7.5400274e-08
0.0078149712
-7.0397455e-08
0.0078148507
-6.5717587e-08
0.0078147383
-6.1336526e-08
0.0078146333
-5.7239057e-08
0.0078145354
-5.3403657e-08
0.007814444
-4.9817384e-08
0.0078143589
-4.6460839e-08
0.0078142794
-4.3323267e-08
0.0078142054
-4.0387245e-08
0.0078141363
-3.7643688e-08
0.007814072
-3.507676e-08
0.0078140121
-3.2679053e-08
0.0078139563
-3.0436254e-08
0.0078139043
-2.8342195e-08
0.007813856
-2.6383765e-08
0.0078138109
-2.45561e-08
0.007813769
-2.2847285e-08
0.0078137301
-2.1253375e-08
0.0078136938
-1.9763372e-08
0.0078136602
-1.8374358e-08
0.0078136289
-1.7076287e-08
0.0078135998
-1.586691e-08
0.0078135728
-1.4736898e-08
0.0078135477
-1.3684794e-08
0.0078135244
-1.2702066e-08
0.0078135028
-1.1787694e-08
0.0078134827
-1.0933761e-08
0.0078134642
-1.0139792e-08
0.0078134469
-9.3986354e-09
0.007813431
-8.7099528e-09
0.0078134162
-8.067296e-09
0.0078134025
-7.4704497e-09
0.0078133898
-6.9140142e-09
0.0078133781
-6.3972711e-09
0.0078133673
-5.9161262e-09
0.0078133572
-5.468959e-09
0.007813348
-5.0538474e-09
0.0078133394
-4.6670004e-09
0.0078133315
-4.3097699e-09
0.0078133242
-3.9747424e-09
0.0078133175
-3.668461e-09
0.0078133113
-3.3773539e-09
0.0078133056
-3.1154706e-09
0.0078133004
-2.8613924e-09
0.0078132955
-2.6389789e-09
0.0078132911
-2.4164112e-09
0.007813287
-2.2252692e-09
0.0078132833
-2.0414391e-09
0.0078132797
-1.8762443e-09
-1.8739777e-09
0.0030953646
0.0030912732
0.0030861816
0.0030815607
0.0030778806
0.0030749951
0.00307263
0.0030705996
0.003068819
0.0030672516
0.0030658701
0.0030646449
0.0030635471
0.0030625533
0.0030616471
0.0030608169
0.0030600539
0.003059351
0.003058702
0.0030581013
0.0030575446
0.0030570279
0.0030565477
0.003056101
0.0030556852
0.0030552979
0.0030549368
0.0030546001
0.0030542859
0.0030539926
0.0030537188
0.003053463
0.0030532241
0.0030530009
0.0030527922
0.0030525973
0.0030524151
0.0030522448
0.0030520856
0.0030519368
0.0030517978
0.0030516678
0.0030515464
0.0030514329
0.0030513268
0.0030512277
0.0030511352
0.0030510487
0.003050968
0.0030508926
0.0030508222
0.0030507564
0.0030506951
0.0030506379
0.0030505845
0.0030505346
0.0030504882
0.0030504448
0.0030504045
0.0030503668
0.0030503317
0.0030502991
0.0030502686
0.0030502403
0.0030502139
0.0030501893
0.0030501665
0.0030501452
0.0030501255
0.0030501071
0.00305009
0.0030500742
0.0030500594
0.0030500457
0.003050033
0.0030500213
0.0030500103
0.0030500002
0.0030499908
0.0030499821
0.003049974
0.0030499665
0.0030499596
0.0030499532
0.0030499473
0.0030499418
0.0030499368
0.0030499321
0.0030499278
0.0030499238
0.0030499202
0.0030499168
0.0030499137
0.0030499108
0.0030499082
0.0030499058
0.0030499036
0.0030499015
0.0030498996
)
;

boundaryField
{
    top
    {
        type            calculated;
        value           uniform 0;
    }
    inlet
    {
        type            calculated;
        value           nonuniform List<scalar> 10(-0.0030965706 -0.0078700152 -0.011326572 -0.01356665 -0.014666315 -0.014666314 -0.01356665 -0.011326572 -0.0078700156 -0.0030965718);
    }
    outlet
    {
        type            calculated;
        value           nonuniform List<scalar> 10(0.0030498978 0.007813277 0.011312117 0.013607408 0.014743418 0.014743418 0.013607407 0.011312116 0.0078132768 0.0030498978);
    }
    bottom
    {
        type            calculated;
        value           uniform 0;
    }
    back
    {
        type            empty;
        value           nonuniform 0();
    }
    front
    {
        type            empty;
        value           nonuniform 0();
    }
}


// ************************************************************************* //
