/*--------------------------------*- C++ -*----------------------------------*\
| =========                 |                                                 |
| \\      /  F ield         | OpenFOAM: The Open Source CFD Toolbox           |
|  \\    /   O peration     | Version:  4.1                                   |
|   \\  /    A nd           | Web:      www.OpenFOAM.org                      |
|    \\/     M anipulation  |                                                 |
\*---------------------------------------------------------------------------*/
FoamFile
{
    version     2.0;
    format      ascii;
    class       volVectorField;
    location    "19";
    object      U;
}
// * * * * * * * * * * * * * * * * * * * * * * * * * * * * * * * * * * * * * //

dimensions      [0 1 -1 0 0 0 0];

internalField   nonuniform List<vector> 
1000
(
(0.3206098 0.00010560336 0)
(0.32037455 0.00031327407 0)
(0.31985417 0.00034792892 0)
(0.31932022 0.00026888697 0)
(0.31888269 0.00017702077 0)
(0.31854479 0.00011781118 0)
(0.31827617 8.8845915e-05 0)
(0.31805053 7.4327276e-05 0)
(0.31785404 6.395342e-05 0)
(0.31768108 5.4761912e-05 0)
(0.31752876 4.7022624e-05 0)
(0.3173942 4.1146541e-05 0)
(0.31727432 3.6874452e-05 0)
(0.31716635 3.3623779e-05 0)
(0.31706823 3.0914051e-05 0)
(0.31697851 2.8502724e-05 0)
(0.31689617 2.6314256e-05 0)
(0.3168204 2.4332768e-05 0)
(0.31675051 2.2542955e-05 0)
(0.3166859 2.0919728e-05 0)
(0.31662606 1.9437002e-05 0)
(0.31657056 1.8074715e-05 0)
(0.316519 1.6819363e-05 0)
(0.31647107 1.566115e-05 0)
(0.31642647 1.4591702e-05 0)
(0.31638493 1.3603038e-05 0)
(0.31634623 1.2687773e-05 0)
(0.31631014 1.1839182e-05 0)
(0.31627647 1.1051448e-05 0)
(0.31624505 1.0319356e-05 0)
(0.31621572 9.6383752e-06 0)
(0.31618832 9.0043215e-06 0)
(0.31616274 8.413543e-06 0)
(0.31613883 7.8626257e-06 0)
(0.3161165 7.3486144e-06 0)
(0.31609562 6.8687034e-06 0)
(0.31607611 6.4204822e-06 0)
(0.31605788 6.0016177e-06 0)
(0.31604084 5.6101193e-06 0)
(0.31602491 5.2440164e-06 0)
(0.31601002 4.9016484e-06 0)
(0.31599611 4.581338e-06 0)
(0.3159831 4.2816892e-06 0)
(0.31597095 4.0012558e-06 0)
(0.31595959 3.7388558e-06 0)
(0.31594898 3.4932366e-06 0)
(0.31593907 3.2633929e-06 0)
(0.31592981 3.0482275e-06 0)
(0.31592116 2.8468816e-06 0)
(0.31591308 2.6583935e-06 0)
(0.31590554 2.4820282e-06 0)
(0.3158985 2.3169337e-06 0)
(0.31589193 2.1624799e-06 0)
(0.3158858 2.0179134e-06 0)
(0.31588007 1.8826946e-06 0)
(0.31587474 1.7561499e-06 0)
(0.31586976 1.6378171e-06 0)
(0.31586511 1.5270971e-06 0)
(0.31586078 1.4235951e-06 0)
(0.31585675 1.3267715e-06 0)
(0.31585298 1.2362899e-06 0)
(0.31584948 1.1516679e-06 0)
(0.31584622 1.0726204e-06 0)
(0.31584318 9.9871011e-07 0)
(0.31584035 9.2969632e-07 0)
(0.31583771 8.6518625e-07 0)
(0.31583526 8.0497892e-07 0)
(0.31583298 7.4871552e-07 0)
(0.31583086 6.9622952e-07 0)
(0.31582889 6.4719692e-07 0)
(0.31582705 6.0148227e-07 0)
(0.31582535 5.5878684e-07 0)
(0.31582377 5.1900257e-07 0)
(0.3158223 4.8185729e-07 0)
(0.31582093 4.4726863e-07 0)
(0.31581966 4.1498143e-07 0)
(0.31581849 3.8493729e-07 0)
(0.3158174 3.5689856e-07 0)
(0.31581639 3.3083195e-07 0)
(0.31581545 3.0650554e-07 0)
(0.31581459 2.8391394e-07 0)
(0.31581378 2.6282693e-07 0)
(0.31581304 2.4327529e-07 0)
(0.31581235 2.2501065e-07 0)
(0.31581171 2.0811429e-07 0)
(0.31581112 1.9230182e-07 0)
(0.31581058 1.7773136e-07 0)
(0.31581008 1.6404151e-07 0)
(0.31580961 1.5150699e-07 0)
(0.31580919 1.3964414e-07 0)
(0.31580879 1.2889678e-07 0)
(0.31580843 1.1860001e-07 0)
(0.31580809 1.0940098e-07 0)
(0.31580778 1.0045399e-07 0)
(0.3158075 9.2490239e-08 0)
(0.31580723 8.481084e-08 0)
(0.315807 7.7639596e-08 0)
(0.31580677 7.2019282e-08 0)
(0.3158066 6.5701788e-08 0)
(0.31580633 7.131351e-08 0)
(0.81482981 0.00011857837 0)
(0.81501749 0.00052948789 0)
(0.81469541 0.00075368557 0)
(0.8142445 0.00074802112 0)
(0.8138402 0.00063257874 0)
(0.81349606 0.00051352129 0)
(0.81318287 0.00042860265 0)
(0.81288433 0.00037187631 0)
(0.81260033 0.00032847318 0)
(0.81233579 0.00029036644 0)
(0.81209337 0.00025633003 0)
(0.8118724 0.00022726799 0)
(0.81167051 0.0002033581 0)
(0.81148524 0.00018374317 0)
(0.81131466 0.00016725752 0)
(0.81115731 0.00015299394 0)
(0.81101195 0.00014041835 0)
(0.81087751 0.0001292368 0)
(0.81075297 0.00011924947 0)
(0.81063742 0.00011028292 0)
(0.81053007 0.00010218184 0)
(0.81043024 9.4817535e-05 0)
(0.8103373 8.809006e-05 0)
(0.81025072 8.1922304e-05 0)
(0.81017001 7.6252282e-05 0)
(0.81009473 7.1027697e-05 0)
(0.81002447 6.6203386e-05 0)
(0.80995888 6.1740141e-05 0)
(0.80989763 5.7604046e-05 0)
(0.8098404 5.376559e-05 0)
(0.80978694 5.0198987e-05 0)
(0.80973697 4.688139e-05 0)
(0.80969026 4.3792531e-05 0)
(0.8096466 4.0914218e-05 0)
(0.80960578 3.8230198e-05 0)
(0.80956761 3.5725743e-05 0)
(0.80953193 3.3387615e-05 0)
(0.80949857 3.1203714e-05 0)
(0.80946738 2.9163101e-05 0)
(0.80943821 2.7255689e-05 0)
(0.80941095 2.5472321e-05 0)
(0.80938547 2.3804495e-05 0)
(0.80936164 2.2244477e-05 0)
(0.80933938 2.0785027e-05 0)
(0.80931857 1.9419546e-05 0)
(0.80929913 1.8141826e-05 0)
(0.80928096 1.6946207e-05 0)
(0.80926399 1.5827324e-05 0)
(0.80924814 1.478029e-05 0)
(0.80923333 1.380045e-05 0)
(0.80921951 1.2883569e-05 0)
(0.8092066 1.2025588e-05 0)
(0.80919455 1.122282e-05 0)
(0.80918331 1.0471718e-05 0)
(0.80917282 9.7690693e-06 0)
(0.80916303 9.11176e-06 0)
(0.8091539 8.496981e-06 0)
(0.80914538 7.921998e-06 0)
(0.80913745 7.3843579e-06 0)
(0.80913005 6.8816502e-06 0)
(0.80912315 6.4117235e-06 0)
(0.80911673 5.9724563e-06 0)
(0.80911074 5.5619684e-06 0)
(0.80910517 5.178384e-06 0)
(0.80909998 4.8200528e-06 0)
(0.80909515 4.4853211e-06 0)
(0.80909066 4.1727481e-06 0)
(0.80908647 3.8808678e-06 0)
(0.80908259 3.6084168e-06 0)
(0.80907897 3.3541001e-06 0)
(0.80907561 3.1168188e-06 0)
(0.80907249 2.8954202e-06 0)
(0.80906959 2.6889451e-06 0)
(0.80906689 2.4963698e-06 0)
(0.80906439 2.3168698e-06 0)
(0.80906207 2.1495227e-06 0)
(0.80905992 1.993623e-06 0)
(0.80905792 1.8483338e-06 0)
(0.80905607 1.7130761e-06 0)
(0.80905435 1.5870627e-06 0)
(0.80905276 1.4698445e-06 0)
(0.80905129 1.3606495e-06 0)
(0.80904993 1.2591978e-06 0)
(0.80904867 1.1646612e-06 0)
(0.8090475 1.0769854e-06 0)
(0.80904642 9.9518728e-07 0)
(0.80904542 9.1956615e-07 0)
(0.8090445 8.488017e-07 0)
(0.80904365 7.8375002e-07 0)
(0.80904287 7.2247143e-07 0)
(0.80904214 6.6673843e-07 0)
(0.80904148 6.1352489e-07 0)
(0.80904086 5.6606851e-07 0)
(0.80904029 5.1954358e-07 0)
(0.80903978 4.795071e-07 0)
(0.80903929 4.3836374e-07 0)
(0.80903887 4.0533835e-07 0)
(0.80903842 3.6907944e-07 0)
(0.80903815 3.4462738e-07 0)
(0.80903762 3.1960299e-07 0)
(1.1726605 9.5153274e-05 0)
(1.1732332 0.00049480116 0)
(1.1732349 0.00078390975 0)
(1.1730986 0.00086451368 0)
(1.1730297 0.00080937011 0)
(1.1730244 0.00071843484 0)
(1.1730229 0.00064324629 0)
(1.1729927 0.00058908955 0)
(1.1729354 0.0005445812 0)
(1.1728647 0.00050164942 0)
(1.1727911 0.00045927152 0)
(1.1727186 0.00041953868 0)
(1.1726474 0.00038401964 0)
(1.1725773 0.00035280688 0)
(1.1725084 0.00032516963 0)
(1.1724415 0.00030033558 0)
(1.1723771 0.00027780314 0)
(1.1723154 0.00025729203 0)
(1.1722566 0.00023860662 0)
(1.1722008 0.00022155979 0)
(1.1721477 0.00020596457 0)
(1.1720975 0.00019165055 0)
(1.1720499 0.00017847407 0)
(1.172005 0.000166317 0)
(1.1719626 0.00015508006 0)
(1.1719227 0.00014467717 0)
(1.1718851 0.00013503226 0)
(1.1718497 0.00012607801 0)
(1.1718164 0.00011775487 0)
(1.1717851 0.00011001018 0)
(1.1717556 0.00010279712 0)
(1.171728 9.607382e-05 0)
(1.1717021 8.9802616e-05 0)
(1.1716777 8.3949524e-05 0)
(1.1716549 7.8483714e-05 0)
(1.1716335 7.3377215e-05 0)
(1.1716134 6.8604485e-05 0)
(1.1715946 6.4142217e-05 0)
(1.171577 5.9968998e-05 0)
(1.1715604 5.6065189e-05 0)
(1.171545 5.241265e-05 0)
(1.1715305 4.8994684e-05 0)
(1.1715169 4.5795802e-05 0)
(1.1715042 4.2801694e-05 0)
(1.1714923 3.9999039e-05 0)
(1.1714812 3.7375503e-05 0)
(1.1714708 3.4919566e-05 0)
(1.1714611 3.2620541e-05 0)
(1.171452 3.0468416e-05 0)
(1.1714435 2.8453898e-05 0)
(1.1714356 2.6568259e-05 0)
(1.1714282 2.4803387e-05 0)
(1.1714213 2.3151649e-05 0)
(1.1714148 2.1605952e-05 0)
(1.1714087 2.0159607e-05 0)
(1.1714031 1.8806398e-05 0)
(1.1713978 1.7540451e-05 0)
(1.1713929 1.6356311e-05 0)
(1.1713883 1.5248819e-05 0)
(1.1713841 1.4213183e-05 0)
(1.1713801 1.3244859e-05 0)
(1.1713764 1.2339637e-05 0)
(1.1713729 1.1493521e-05 0)
(1.1713697 1.0702807e-05 0)
(1.1713667 9.9639727e-06 0)
(1.1713639 9.2737604e-06 0)
(1.1713613 8.6290722e-06 0)
(1.1713588 8.0270391e-06 0)
(1.1713566 7.4649309e-06 0)
(1.1713545 6.9402232e-06 0)
(1.1713525 6.4505181e-06 0)
(1.1713507 5.9935874e-06 0)
(1.171349 5.5673246e-06 0)
(1.1713474 5.1697608e-06 0)
(1.171346 4.7990608e-06 0)
(1.1713446 4.4534682e-06 0)
(1.1713434 4.1313976e-06 0)
(1.1713422 3.8312618e-06 0)
(1.1713411 3.5517326e-06 0)
(1.1713401 3.2913252e-06 0)
(1.1713392 3.0489906e-06 0)
(1.1713383 2.8232582e-06 0)
(1.1713375 2.613442e-06 0)
(1.1713368 2.4179269e-06 0)
(1.1713361 2.2365508e-06 0)
(1.1713355 2.0672861e-06 0)
(1.1713349 1.9108375e-06 0)
(1.1713343 1.7642575e-06 0)
(1.1713338 1.62977e-06 0)
(1.1713334 1.5025657e-06 0)
(1.1713329 1.3876705e-06 0)
(1.1713325 1.2766035e-06 0)
(1.1713322 1.1796527e-06 0)
(1.1713318 1.0811858e-06 0)
(1.1713315 1.0015987e-06 0)
(1.1713312 9.1156782e-07 0)
(1.171331 8.5080418e-07 0)
(1.1713307 7.6439851e-07 0)
(1.1713306 7.2774036e-07 0)
(1.1713302 6.4266943e-07 0)
(1.4045375 6.0013723e-05 0)
(1.4053581 0.00033716404 0)
(1.4055623 0.00056190345 0)
(1.4056293 0.0006477946 0)
(1.4058031 0.00062952584 0)
(1.4060776 0.00057588569 0)
(1.4063667 0.000528521 0)
(1.4066161 0.00049503142 0)
(1.4068196 0.0004678988 0)
(1.4069924 0.00044058129 0)
(1.4071481 0.00041189224 0)
(1.4072921 0.00038354537 0)
(1.4074247 0.00035715784 0)
(1.4075453 0.00033319318 0)
(1.4076547 0.00031134056 0)
(1.407754 0.00029115011 0)
(1.4078448 0.00027233794 0)
(1.4079281 0.00025478039 0)
(1.4080047 0.00023841201 0)
(1.4080753 0.0002231609 0)
(1.4081403 0.00020893974 0)
(1.4082004 0.00019566037 0)
(1.4082559 0.00018324525 0)
(1.4083073 0.00017162932 0)
(1.4083549 0.00016075645 0)
(1.4083991 0.00015057608 0)
(1.4084402 0.00014104132 0)
(1.4084783 0.00013210882 0)
(1.4085138 0.00012373847 0)
(1.4085468 0.00011589349 0)
(1.4085776 0.00010853983 0)
(1.4086062 0.00010164609 0)
(1.4086329 9.5182922e-05 0)
(1.4086578 8.9123187e-05 0)
(1.408681 8.3441382e-05 0)
(1.4087027 7.8113935e-05 0)
(1.4087229 7.311862e-05 0)
(1.4087417 6.8434894e-05 0)
(1.4087594 6.4043314e-05 0)
(1.4087758 5.9925924e-05 0)
(1.4087911 5.6065666e-05 0)
(1.4088055 5.2446811e-05 0)
(1.4088189 4.9054364e-05 0)
(1.4088314 4.5874522e-05 0)
(1.408843 4.2894084e-05 0)
(1.4088539 4.0100923e-05 0)
(1.4088641 3.7483398e-05 0)
(1.4088736 3.5030848e-05 0)
(1.4088825 3.2732998e-05 0)
(1.4088907 3.058047e-05 0)
(1.4088985 2.8564186e-05 0)
(1.4089057 2.6675894e-05 0)
(1.4089124 2.4907569e-05 0)
(1.4089187 2.3251948e-05 0)
(1.4089245 2.1701934e-05 0)
(1.40893 2.0251134e-05 0)
(1.4089351 1.8893271e-05 0)
(1.4089398 1.762272e-05 0)
(1.4089442 1.6433923e-05 0)
(1.4089483 1.5321934e-05 0)
(1.4089522 1.4281832e-05 0)
(1.4089557 1.330927e-05 0)
(1.4089591 1.239989e-05 0)
(1.4089622 1.1549872e-05 0)
(1.4089651 1.0755357e-05 0)
(1.4089677 1.0012993e-05 0)
(1.4089702 9.3193586e-06 0)
(1.4089726 8.6715139e-06 0)
(1.4089747 8.0664305e-06 0)
(1.4089767 7.5015283e-06 0)
(1.4089786 6.9741276e-06 0)
(1.4089803 6.4819632e-06 0)
(1.4089819 6.0226707e-06 0)
(1.4089834 5.5942547e-06 0)
(1.4089848 5.1946389e-06 0)
(1.4089861 4.8220514e-06 0)
(1.4089873 4.4746937e-06 0)
(1.4089884 4.1509604e-06 0)
(1.4089894 3.849339e-06 0)
(1.4089904 3.5683128e-06 0)
(1.4089912 3.3067057e-06 0)
(1.4089921 3.0629637e-06 0)
(1.4089928 2.8363665e-06 0)
(1.4089935 2.6251033e-06 0)
(1.4089941 2.4291711e-06 0)
(1.4089947 2.2460938e-06 0)
(1.4089953 2.0771101e-06 0)
(1.4089958 1.9183071e-06 0)
(1.4089963 1.7732003e-06 0)
(1.4089967 1.6349708e-06 0)
(1.4089971 1.5113985e-06 0)
(1.4089975 1.3899907e-06 0)
(1.4089978 1.286512e-06 0)
(1.4089981 1.1777341e-06 0)
(1.4089984 1.0942257e-06 0)
(1.4089987 9.9320234e-07 0)
(1.4089989 9.3162384e-07 0)
(1.4089992 8.3267632e-07 0)
(1.4089993 7.9751931e-07 0)
(1.4089996 6.9542453e-07 0)
(1.5183612 2.037865e-05 0)
(1.5193037 0.00011831603 0)
(1.5196016 0.00020146025 0)
(1.5197594 0.00023656816 0)
(1.5200455 0.00023309141 0)
(1.5204573 0.0002153124 0)
(1.5208964 0.0001990829 0)
(1.5212961 0.00018786153 0)
(1.5216447 0.00017903598 0)
(1.5219575 0.00017005557 0)
(1.5222495 0.00016035494 0)
(1.5225264 0.00015054992 0)
(1.522788 0.00014128596 0)
(1.5230333 0.00013278276 0)
(1.5232622 0.00012495032 0)
(1.5234761 0.0001176318 0)
(1.5236764 0.0001107293 0)
(1.5238642 0.00010420719 0)
(1.5240405 9.8053506e-05 0)
(1.5242058 9.2253709e-05 0)
(1.5243608 8.6786175e-05 0)
(1.5245062 8.1627498e-05 0)
(1.5246425 7.6757118e-05 0)
(1.5247704 7.215822e-05 0)
(1.5248903 6.7816511e-05 0)
(1.5250028 6.3718928e-05 0)
(1.5251082 5.9852993e-05 0)
(1.525207 5.6206762e-05 0)
(1.5252997 5.2768842e-05 0)
(1.5253866 4.9528459e-05 0)
(1.525468 4.6475337e-05 0)
(1.5255443 4.3599704e-05 0)
(1.5256158 4.0892177e-05 0)
(1.5256827 3.8343806e-05 0)
(1.5257455 3.5946e-05 0)
(1.5258042 3.3690592e-05 0)
(1.5258592 3.1569746e-05 0)
(1.5259108 2.957603e-05 0)
(1.525959 2.7702319e-05 0)
(1.5260041 2.5941884e-05 0)
(1.5260464 2.4288277e-05 1.8748824e-33)
(1.5260859 2.2735416e-05 0)
(1.5261229 2.1277483e-05 0)
(1.5261575 1.9909013e-05 0)
(1.5261899 1.8624778e-05 0)
(1.5262201 1.7419871e-05 0)
(1.5262484 1.6289602e-05 0)
(1.5262748 1.5229592e-05 0)
(1.5262995 1.4235646e-05 0)
(1.5263226 1.3303853e-05 0)
(1.5263442 1.2430466e-05 0)
(1.5263644 1.161201e-05 0)
(1.5263832 1.0845149e-05 0)
(1.5264007 1.0126789e-05 0)
(1.5264171 9.4539597e-06 0)
(1.5264324 8.8239218e-06 0)
(1.5264467 8.2340377e-06 0)
(1.52646 7.6818754e-06 0)
(1.5264725 7.1650916e-06 0)
(1.5264841 6.6815397e-06 0)
(1.5264949 6.2291426e-06 0)
(1.5265049 5.8059982e-06 0)
(1.5265143 5.4102636e-06 0)
(1.526523 5.0402647e-06 0)
(1.5265312 4.6943709e-06 0)
(1.5265388 4.3710999e-06 0)
(1.5265458 4.0690069e-06 0)
(1.5265524 3.7867904e-06 0)
(1.5265585 3.5231744e-06 0)
(1.5265642 3.2770061e-06 0)
(1.5265695 3.0471578e-06 0)
(1.5265744 2.8326169e-06 0)
(1.5265789 2.6323933e-06 0)
(1.5265832 2.4455838e-06 0)
(1.5265871 2.2713228e-06 0)
(1.5265908 2.1088067e-06 0)
(1.5265941 1.9572944e-06 0)
(1.5265973 1.8160438e-06 0)
(1.5266002 1.6844431e-06 0)
(1.5266029 1.5617841e-06 0)
(1.5266054 1.4476156e-06 0)
(1.5266078 1.3411883e-06 0)
(1.5266099 1.2422747e-06 0)
(1.5266119 1.1499802e-06 0)
(1.5266137 1.0644448e-06 0)
(1.5266155 9.8440301e-07 0)
(1.526617 9.1063804e-07 0)
(1.5266185 8.4112082e-07 0)
(1.5266198 7.7782043e-07 0)
(1.5266211 7.1717851e-07 0)
(1.5266222 6.6335549e-07 0)
(1.5266233 6.0988504e-07 0)
(1.5266242 5.6494835e-07 2.9530615e-35)
(1.5266252 5.1676929e-07 0)
(1.5266259 4.8074043e-07 0)
(1.5266268 4.3579119e-07 8.85916e-36)
(1.5266274 4.0955232e-07 0)
(1.5266282 3.6536522e-07 0)
(1.5266286 3.504228e-07 0)
(1.5266295 3.0427906e-07 0)
(1.518361 -2.0377693e-05 0)
(1.5193036 -0.00011831349 0)
(1.5196015 -0.00020146249 0)
(1.5197594 -0.00023657479 0)
(1.5200454 -0.00023309582 0)
(1.5204572 -0.00021530717 0)
(1.5208964 -0.0001990671 0)
(1.5212961 -0.00018783814 0)
(1.5216447 -0.0001790091 0)
(1.5219575 -0.00017002701 0)
(1.5222495 -0.00016032543 0)
(1.5225264 -0.00015051952 0)
(1.522788 -0.00014125529 0)
(1.5230333 -0.00013275247 0)
(1.5232622 -0.00012492123 0)
(1.5234761 -0.00011760441 0)
(1.5236764 -0.00011070404 0)
(1.5238642 -0.00010418428 0)
(1.5240405 -9.8033083e-05 0)
(1.5242058 -9.2235863e-05 0)
(1.5243608 -8.6770875e-05 0)
(1.5245062 -8.1614721e-05 0)
(1.5246425 -7.6746695e-05 0)
(1.5247704 -7.2150057e-05 0)
(1.5248903 -6.7810366e-05 0)
(1.5250028 -6.3714698e-05 0)
(1.5251082 -5.9850406e-05 0)
(1.5252071 -5.6205722e-05 0)
(1.5252997 -5.2769066e-05 0)
(1.5253866 -4.9529871e-05 0)
(1.525468 -4.6477661e-05 0)
(1.5255443 -4.3602906e-05 0)
(1.5256158 -4.0896004e-05 0)
(1.5256828 -3.8348271e-05 0)
(1.5257455 -3.595087e-05 0)
(1.5258042 -3.3695903e-05 0)
(1.5258593 -3.157528e-05 0)
(1.5259108 -2.9581857e-05 0)
(1.525959 -2.7708241e-05 0)
(1.5260041 -2.5947987e-05 0)
(1.5260464 -2.4294369e-05 -1.8748824e-33)
(1.5260859 -2.2741611e-05 0)
(1.5261229 -2.1283602e-05 0)
(1.5261575 -1.9915177e-05 0)
(1.5261899 -1.863081e-05 0)
(1.5262201 -1.742591e-05 0)
(1.5262484 -1.6295482e-05 0)
(1.5262748 -1.523545e-05 0)
(1.5262995 -1.4241316e-05 0)
(1.5263226 -1.3309485e-05 0)
(1.5263442 -1.2435902e-05 0)
(1.5263644 -1.1617396e-05 0)
(1.5263832 -1.0850322e-05 0)
(1.5264007 -1.0131907e-05 0)
(1.5264171 -9.4588652e-06 0)
(1.5264324 -8.8287675e-06 0)
(1.5264467 -8.2386608e-06 0)
(1.52646 -7.686438e-06 0)
(1.5264725 -7.1694364e-06 0)
(1.5264841 -6.6858214e-06 0)
(1.5264949 -6.2331988e-06 0)
(1.5265049 -5.8099921e-06 0)
(1.5265143 -5.4140381e-06 0)
(1.526523 -5.043975e-06 0)
(1.5265312 -4.6978546e-06 0)
(1.5265388 -4.3745204e-06 0)
(1.5265458 -4.0722074e-06 0)
(1.5265524 -3.7899259e-06 0)
(1.5265585 -3.5260831e-06 0)
(1.5265642 -3.2798513e-06 0)
(1.5265694 -3.0497832e-06 0)
(1.5265744 -2.8351779e-06 0)
(1.5265789 -2.634729e-06 0)
(1.5265832 -2.4478581e-06 0)
(1.5265871 -2.2733809e-06 0)
(1.5265907 -2.1108053e-06 0)
(1.5265941 -1.9590742e-06 0)
(1.5265973 -1.817771e-06 0)
(1.5266002 -1.6859649e-06 0)
(1.5266029 -1.5632607e-06 0)
(1.5266054 -1.4488905e-06 0)
(1.5266077 -1.3424327e-06 0)
(1.5266099 -1.2433391e-06 0)
(1.5266119 -1.1510325e-06 0)
(1.5266137 -1.0653316e-06 0)
(1.5266154 -9.853068e-07 0)
(1.526617 -9.114119e-07 0)
(1.5266185 -8.4194886e-07 0)
(1.5266198 -7.7855171e-07 0)
(1.5266211 -7.1801842e-07 0)
(1.5266222 -6.6416883e-07 0)
(1.5266233 -6.1091172e-07 0)
(1.5266242 -5.6607537e-07 -2.9530615e-35)
(1.5266252 -5.1822344e-07 0)
(1.5266259 -4.8236373e-07 0)
(1.5266268 -4.3758641e-07 -8.85916e-36)
(1.5266274 -4.1147849e-07 0)
(1.5266282 -3.672371e-07 0)
(1.5266285 -3.5278975e-07 0)
(1.5266294 -3.0708288e-07 0)
(1.4045375 -6.0014023e-05 0)
(1.4053581 -0.00033717324 0)
(1.4055623 -0.00056192133 0)
(1.4056293 -0.0006478153 0)
(1.4058031 -0.00062954209 0)
(1.4060776 -0.0005758935 0)
(1.4063667 -0.00052851983 0)
(1.4066161 -0.00049502346 0)
(1.4068196 -0.00046788602 0)
(1.4069924 -0.00044056514 0)
(1.4071481 -0.00041187332 0)
(1.4072921 -0.00038352442 0)
(1.4074247 -0.00035713557 0)
(1.4075453 -0.0003331705 0)
(1.4076547 -0.00031131819 0)
(1.407754 -0.00029112868 0)
(1.4078448 -0.00027231788 0)
(1.4079281 -0.00025476201 0)
(1.4080047 -0.00023839554 0)
(1.4080753 -0.00022314644 0)
(1.4081404 -0.00020892736 0)
(1.4082004 -0.00019565 0)
(1.4082559 -0.00018323685 0)
(1.4083073 -0.00017162273 0)
(1.408355 -0.0001607516 0)
(1.4083992 -0.00015057275 0)
(1.4084402 -0.00014103941 0)
(1.4084784 -0.00013210811 0)
(1.4085138 -0.00012373887 0)
(1.4085468 -0.00011589479 0)
(1.4085776 -0.00010854196 0)
(1.4086062 -0.00010164886 0)
(1.4086329 -9.5186299e-05 0)
(1.4086578 -8.9126982e-05 0)
(1.408681 -8.3445595e-05 0)
(1.4087027 -7.811839e-05 0)
(1.4087229 -7.3123347e-05 0)
(1.4087418 -6.8439738e-05 0)
(1.4087594 -6.4048322e-05 0)
(1.4087758 -5.9930949e-05 0)
(1.4087912 -5.6070777e-05 0)
(1.4088055 -5.2451877e-05 0)
(1.4088189 -4.9059462e-05 0)
(1.4088314 -4.5879523e-05 0)
(1.408843 -4.289908e-05 0)
(1.4088539 -4.0105796e-05 0)
(1.4088641 -3.7488243e-05 0)
(1.4088736 -3.5035544e-05 0)
(1.4088825 -3.2737651e-05 0)
(1.4088907 -3.0584967e-05 0)
(1.4088985 -2.8568631e-05 0)
(1.4089057 -2.6680169e-05 0)
(1.4089124 -2.4911786e-05 0)
(1.4089187 -2.3255997e-05 0)
(1.4089245 -2.1705923e-05 0)
(1.40893 -2.0254949e-05 0)
(1.408935 -1.8897024e-05 0)
(1.4089398 -1.7626302e-05 0)
(1.4089442 -1.6437444e-05 0)
(1.4089483 -1.5325278e-05 0)
(1.4089522 -1.4285115e-05 0)
(1.4089557 -1.3312382e-05 0)
(1.4089591 -1.2402941e-05 0)
(1.4089622 -1.1552747e-05 0)
(1.408965 -1.075817e-05 0)
(1.4089677 -1.0015635e-05 0)
(1.4089702 -9.3219398e-06 0)
(1.4089725 -8.6739191e-06 0)
(1.4089747 -8.0687739e-06 0)
(1.4089767 -7.5037014e-06 0)
(1.4089786 -6.9762399e-06 0)
(1.4089803 -6.4839007e-06 0)
(1.4089819 -6.0245477e-06 0)
(1.4089834 -5.595964e-06 0)
(1.4089848 -5.1962905e-06 0)
(1.4089861 -4.823533e-06 0)
(1.4089873 -4.4761207e-06 0)
(1.4089884 -4.1522278e-06 0)
(1.4089894 -3.8505586e-06 0)
(1.4089903 -3.5693753e-06 0)
(1.4089912 -3.3077291e-06 0)
(1.408992 -3.0638466e-06 0)
(1.4089928 -2.837225e-06 0)
(1.4089935 -2.6258322e-06 0)
(1.4089941 -2.4298947e-06 0)
(1.4089947 -2.2467155e-06 0)
(1.4089953 -2.0777553e-06 0)
(1.4089958 -1.9188752e-06 0)
(1.4089962 -1.7738295e-06 0)
(1.4089967 -1.6355701e-06 0)
(1.4089971 -1.5121208e-06 0)
(1.4089974 -1.3907497e-06 0)
(1.4089978 -1.2874824e-06 0)
(1.4089981 -1.1788358e-06 0)
(1.4089984 -1.0955494e-06 0)
(1.4089987 -9.9462672e-07 0)
(1.4089988 -9.3314583e-07 0)
(1.4089991 -8.3412625e-07 0)
(1.4089993 -7.9915819e-07 0)
(1.4089996 -6.9719015e-07 0)
(1.1726605 -9.5152978e-05 0)
(1.1732332 -0.0004947928 0)
(1.1732348 -0.00078389741 0)
(1.1730986 -0.00086450588 0)
(1.1730297 -0.00080936901 0)
(1.1730244 -0.00071843912 0)
(1.1730229 -0.0006432517 0)
(1.1729927 -0.00058909299 0)
(1.1729355 -0.00054458063 0)
(1.1728648 -0.00050164495 0)
(1.1727912 -0.00045926364 0)
(1.1727186 -0.00041952843 0)
(1.1726474 -0.00038400765 0)
(1.1725773 -0.00035279389 0)
(1.1725085 -0.00032515616 0)
(1.1724416 -0.00030032224 0)
(1.1723771 -0.00027779035 0)
(1.1723155 -0.00025728016 0)
(1.1722567 -0.00023859592 0)
(1.1722008 -0.00022155038 0)
(1.1721478 -0.00020595655 0)
(1.1720975 -0.00019164387 0)
(1.17205 -0.00017846875 0)
(1.1720051 -0.0001663129 0)
(1.1719627 -0.00015507717 0)
(1.1719227 -0.00014467527 0)
(1.1718851 -0.00013503135 0)
(1.1718497 -0.00012607786 0)
(1.1718164 -0.00011775549 0)
(1.1717851 -0.00011001134 0)
(1.1717557 -0.00010279885 0)
(1.1717281 -9.6075895e-05 0)
(1.1717021 -8.9805106e-05 0)
(1.1716778 -8.3952203e-05 0)
(1.1716549 -7.8486673e-05 0)
(1.1716335 -7.3380242e-05 0)
(1.1716134 -6.8607704e-05 0)
(1.1715946 -6.4145422e-05 0)
(1.171577 -5.9972323e-05 0)
(1.1715605 -5.6068437e-05 0)
(1.171545 -5.2415981e-05 0)
(1.1715305 -4.8997902e-05 0)
(1.1715169 -4.5799067e-05 0)
(1.1715042 -4.2804816e-05 0)
(1.1714924 -4.0002199e-05 0)
(1.1714812 -3.7378508e-05 0)
(1.1714708 -3.4922591e-05 0)
(1.1714611 -3.2623398e-05 0)
(1.171452 -3.0471297e-05 0)
(1.1714435 -2.845661e-05 0)
(1.1714356 -2.6570985e-05 0)
(1.1714282 -2.4805938e-05 0)
(1.1714212 -2.3154223e-05 0)
(1.1714148 -2.1608354e-05 0)
(1.1714087 -2.0162025e-05 0)
(1.1714031 -1.8808641e-05 0)
(1.1713978 -1.7542717e-05 0)
(1.1713929 -1.6358408e-05 0)
(1.1713883 -1.5250934e-05 0)
(1.171384 -1.4215123e-05 0)
(1.1713801 -1.3246826e-05 0)
(1.1713763 -1.2341435e-05 0)
(1.1713729 -1.1495339e-05 0)
(1.1713697 -1.0704453e-05 0)
(1.1713666 -9.9656449e-06 0)
(1.1713638 -9.2752652e-06 0)
(1.1713612 -8.6305968e-06 0)
(1.1713588 -8.0283922e-06 0)
(1.1713565 -7.4663111e-06 0)
(1.1713544 -6.9414369e-06 0)
(1.1713525 -6.4517521e-06 0)
(1.1713507 -5.9946514e-06 0)
(1.171349 -5.5684169e-06 0)
(1.1713474 -5.170689e-06 0)
(1.171346 -4.8000117e-06 0)
(1.1713446 -4.4542531e-06 0)
(1.1713433 -4.1322154e-06 0)
(1.1713422 -3.831922e-06 0)
(1.1713411 -3.5524231e-06 0)
(1.1713401 -3.2918595e-06 0)
(1.1713392 -3.0495695e-06 0)
(1.1713383 -2.8236937e-06 0)
(1.1713375 -2.6139252e-06 0)
(1.1713367 -2.4182737e-06 0)
(1.1713361 -2.2369677e-06 0)
(1.1713354 -2.0675862e-06 0)
(1.1713348 -1.9112222e-06 0)
(1.1713343 -1.7645411e-06 0)
(1.1713338 -1.6301752e-06 0)
(1.1713333 -1.5029018e-06 0)
(1.1713329 -1.3881658e-06 0)
(1.1713325 -1.2770488e-06 0)
(1.1713321 -1.1802935e-06 0)
(1.1713318 -1.0818005e-06 0)
(1.1713315 -1.0023894e-06 0)
(1.1713312 -9.1241763e-07 0)
(1.171331 -8.516605e-07 0)
(1.1713307 -7.6520524e-07 0)
(1.1713305 -7.2832694e-07 0)
(1.1713302 -6.4304902e-07 0)
(0.81482986 -0.0001185739 0)
(0.81501754 -0.00052947077 0)
(0.81469546 -0.00075366398 0)
(0.81424455 -0.00074800724 0)
(0.81384025 -0.00063258098 0)
(0.81349611 -0.00051353861 0)
(0.81318292 -0.0004286276 0)
(0.81288437 -0.00037190025 0)
(0.81260036 -0.00032849149 0)
(0.81233582 -0.00029037834 0)
(0.8120934 -0.00025633702 0)
(0.81187242 -0.00022727149 0)
(0.81167053 -0.00020335918 0)
(0.81148527 -0.00018374241 0)
(0.81131469 -0.00016725549 0)
(0.81115734 -0.00015299114 0)
(0.81101198 -0.00014041529 0)
(0.81087754 -0.00012923383 0)
(0.810753 -0.00011924681 0)
(0.81063746 -0.00011028073 0)
(0.81053011 -0.00010218014 0)
(0.81043028 -9.4816386e-05 0)
(0.81033734 -8.8089403e-05 0)
(0.81025076 -8.1922156e-05 0)
(0.81017005 -7.6252537e-05 0)
(0.81009477 -7.1028353e-05 0)
(0.81002452 -6.6204318e-05 0)
(0.80995893 -6.1741366e-05 0)
(0.80989767 -5.7605438e-05 0)
(0.80984045 -5.3767178e-05 0)
(0.80978697 -5.0200647e-05 0)
(0.809737 -4.6883172e-05 0)
(0.80969029 -4.3794315e-05 0)
(0.80964663 -4.0916066e-05 0)
(0.80960581 -3.8231993e-05 0)
(0.80956764 -3.5727571e-05 0)
(0.80953196 -3.3389366e-05 0)
(0.80949859 -3.1205472e-05 0)
(0.8094674 -2.9164758e-05 0)
(0.80943824 -2.7257348e-05 0)
(0.80941097 -2.5473876e-05 0)
(0.80938548 -2.3806045e-05 0)
(0.80936166 -2.2245914e-05 0)
(0.80933939 -2.0786462e-05 0)
(0.80931858 -1.9420874e-05 0)
(0.80929914 -1.8143152e-05 0)
(0.80928097 -1.6947422e-05 0)
(0.80926399 -1.5828546e-05 0)
(0.80924814 -1.478141e-05 0)
(0.80923333 -1.3801575e-05 0)
(0.80921951 -1.288459e-05 0)
(0.8092066 -1.2026624e-05 0)
(0.80919455 -1.1223761e-05 0)
(0.8091833 -1.0472671e-05 0)
(0.80917281 -9.7699243e-06 0)
(0.80916302 -9.1126357e-06 0)
(0.80915389 -8.4977669e-06 0)
(0.80914538 -7.9228025e-06 0)
(0.80913744 -7.3850684e-06 0)
(0.80913004 -6.8823857e-06 0)
(0.80912314 -6.4123731e-06 0)
(0.80911671 -5.9731279e-06 0)
(0.80911073 -5.562549e-06 0)
(0.80910516 -5.1789922e-06 0)
(0.80909996 -4.8205775e-06 0)
(0.80909514 -4.4858697e-06 0)
(0.80909064 -4.1732077e-06 0)
(0.80908646 -3.8813565e-06 0)
(0.80908257 -3.6088237e-06 0)
(0.80907895 -3.3545322e-06 0)
(0.80907559 -3.1171637e-06 0)
(0.80907247 -2.8957955e-06 0)
(0.80906957 -2.6892407e-06 0)
(0.80906687 -2.4966924e-06 0)
(0.80906437 -2.3171079e-06 0)
(0.80906205 -2.1497938e-06 0)
(0.8090599 -1.9938178e-06 0)
(0.8090579 -1.8485594e-06 0)
(0.80905605 -1.7132221e-06 0)
(0.80905433 -1.5872468e-06 0)
(0.80905274 -1.4699594e-06 0)
(0.80905127 -1.3608023e-06 0)
(0.8090499 -1.2592807e-06 0)
(0.80904864 -1.1647922e-06 0)
(0.80904748 -1.0770603e-06 0)
(0.8090464 -9.9531376e-07 0)
(0.8090454 -9.1964127e-07 0)
(0.80904448 -8.4894321e-07 0)
(0.80904363 -7.8386208e-07 0)
(0.80904284 -7.2266078e-07 0)
(0.80904212 -6.669028e-07 0)
(0.80904145 -6.1375573e-07 0)
(0.80904084 -5.6624334e-07 0)
(0.80904027 -5.1972539e-07 0)
(0.80903975 -4.7968458e-07 0)
(0.80903926 -4.3858858e-07 0)
(0.80903885 -4.0548283e-07 0)
(0.80903839 -3.6923625e-07 0)
(0.80903813 -3.4437079e-07 0)
(0.80903759 -3.1909877e-07 0)
(0.32060992 -0.00010559694 0)
(0.32037463 -0.00031326225 0)
(0.31985422 -0.00034791962 0)
(0.31932026 -0.0002688861 0)
(0.31888273 -0.0001770316 0)
(0.31854482 -0.00011783012 0)
(0.31827619 -8.8866597e-05 0)
(0.31805053 -7.4344077e-05 0)
(0.31785403 -6.3964928e-05 0)
(0.31768106 -5.4769061e-05 0)
(0.31752874 -4.7027342e-05 0)
(0.31739419 -4.1149853e-05 0)
(0.3172743 -3.6876932e-05 0)
(0.31716634 -3.3625523e-05 0)
(0.31706822 -3.0915291e-05 0)
(0.31697851 -2.8503629e-05 0)
(0.31689617 -2.6315029e-05 0)
(0.3168204 -2.433352e-05 0)
(0.31675052 -2.2543732e-05 0)
(0.31668591 -2.0920568e-05 0)
(0.31662608 -1.9437869e-05 0)
(0.31657057 -1.8075651e-05 0)
(0.31651902 -1.6820306e-05 0)
(0.31647109 -1.5662152e-05 0)
(0.31642648 -1.4592673e-05 0)
(0.31638495 -1.3604045e-05 0)
(0.31634624 -1.268872e-05 0)
(0.31631015 -1.1840155e-05 0)
(0.31627649 -1.1052335e-05 0)
(0.31624507 -1.0320257e-05 0)
(0.31621573 -9.6391786e-06 0)
(0.31618834 -9.0051407e-06 0)
(0.31616275 -8.4142528e-06 0)
(0.31613884 -7.8633488e-06 0)
(0.31611651 -7.3492284e-06 0)
(0.31609563 -6.8693411e-06 0)
(0.31607612 -6.4210081e-06 0)
(0.31605789 -6.0021688e-06 0)
(0.31604085 -5.6105635e-06 0)
(0.31602492 -5.2444976e-06 0)
(0.31601003 -4.9020225e-06 0)
(0.31599611 -4.5817502e-06 0)
(0.31598311 -4.2820005e-06 0)
(0.31597095 -4.0016164e-06 0)
(0.3159596 -3.7391154e-06 0)
(0.31594898 -3.4935452e-06 0)
(0.31593907 -3.2636064e-06 0)
(0.31592981 -3.0484998e-06 0)
(0.31592116 -2.8470582e-06 0)
(0.31591308 -2.658627e-06 0)
(0.31590554 -2.4821713e-06 0)
(0.3158985 -2.3171422e-06 0)
(0.31589193 -2.1625966e-06 0)
(0.3158858 -2.0180926e-06 0)
(0.31588007 -1.8827866e-06 0)
(0.31587473 -1.7563118e-06 0)
(0.31586975 -1.6378903e-06 0)
(0.31586511 -1.5272361e-06 0)
(0.31586078 -1.4236495e-06 0)
(0.31585674 -1.3268985e-06 0)
(0.31585298 -1.2363302e-06 0)
(0.31584948 -1.1517763e-06 0)
(0.31584621 -1.0726461e-06 0)
(0.31584317 -9.9880996e-07 0)
(0.31584034 -9.2971116e-07 0)
(0.31583771 -8.652704e-07 0)
(0.31583525 -8.0498178e-07 0)
(0.31583297 -7.4879356e-07 0)
(0.31583085 -6.962239e-07 0)
(0.31582888 -6.4726142e-07 0)
(0.31582705 -6.0146675e-07 0)
(0.31582534 -5.5884718e-07 0)
(0.31582376 -5.1898055e-07 0)
(0.31582229 -4.8190609e-07 0)
(0.31582092 -4.4723877e-07 0)
(0.31581966 -4.1502817e-07 0)
(0.31581848 -3.8490322e-07 0)
(0.31581739 -3.5693625e-07 0)
(0.31581638 -3.3079279e-07 0)
(0.31581545 -3.065442e-07 0)
(0.31581458 -2.8387401e-07 0)
(0.31581377 -2.6286042e-07 0)
(0.31581303 -2.4323464e-07 0)
(0.31581234 -2.2504997e-07 0)
(0.31581171 -2.0807847e-07 0)
(0.31581112 -1.9234264e-07 0)
(0.31581057 -1.7770259e-07 0)
(0.31581007 -1.640974e-07 0)
(0.31580961 -1.5149528e-07 0)
(0.31580918 -1.3971379e-07 0)
(0.31580878 -1.288921e-07 0)
(0.31580842 -1.1865753e-07 0)
(0.31580808 -1.0933303e-07 0)
(0.31580777 -1.0042928e-07 0)
(0.31580749 -9.2408186e-08 0)
(0.31580723 -8.4742095e-08 0)
(0.31580699 -7.7533697e-08 0)
(0.31580676 -7.1921812e-08 0)
(0.31580659 -6.53834e-08 0)
(0.31580632 -7.0941798e-08 0)
)
;

boundaryField
{
    top
    {
        type            fixedValue;
        value           uniform (0 0 0);
    }
    inlet
    {
        type            pressureNormalInletOutletVelocity;
        phi             phi;
        rho             rho;