/*--------------------------------*- C++ -*----------------------------------*\
  =========                 |
  \\      /  F ield         | OpenFOAM: The Open Source CFD Toolbox
   \\    /   O peration     | Website:  https://openfoam.org
    \\  /    A nd           | Version:  6
     \\/     M anipulation  |
\*---------------------------------------------------------------------------*/
FoamFile
{
    version     2.0;
    format      ascii;
    class       surfaceScalarField;
    location    "128";
    object      phi_0;
}
// * * * * * * * * * * * * * * * * * * * * * * * * * * * * * * * * * * * * * //

dimensions      [0 3 -1 0 0 0 0];

internalField   nonuniform List<scalar> 
18180
(
0.00031873328
-0.00016316809
-0.0001555652
0.0013092271
-0.0013669489
0.00037645508
0.0030329243
-0.0033336869
0.0016099897
0.0055498398
-0.0059760686
0.0034591531
0.0089183022
-0.00923924
0.0058707776
0.013192966
-0.013079749
0.0088050848
0.018422153
-0.017460127
0.012230939
0.024644883
-0.022346159
0.016123429
0.031887724
-0.027703755
0.020460914
0.040161717
-0.03349633
0.025222338
0.049459689
-0.039683051
0.030385078
0.059754332
-0.046217911
0.035923269
0.070997429
-0.053049642
0.041806545
0.083120716
-0.060122466
0.047999179
0.096038963
-0.067377805
0.054459558
0.10965581
-0.074757046
0.061140199
0.12387179
-0.082205212
0.067989236
0.13859954
-0.089675261
0.074947512
0.15383763
-0.097150064
0.08191197
-0.10462725
0.088680202
0.16978468
0.00039750164
-0.00056066974
0.0016096128
-0.0025790601
0.0036893588
-0.0054134329
0.0066875164
-0.0089742263
0.010650766
-0.01320249
0.015618034
-0.018047017
0.021616482
-0.023458575
0.028657547
-0.029387223
0.036733305
-0.035779513
0.045813579
-0.042576604
0.055844197
-0.049713669
0.066746782
-0.057120497
0.078420302
-0.064723162
0.090744469
-0.072446634
0.10358479
-0.080218127
0.11679865
-0.087970911
0.13024152
-0.095648077
0.14377369
-0.10320744
0.15725924
-0.11063561
-0.1178631
0.1704951
0.00048062853
-0.0010412983
0.0019187181
-0.0040171496
0.0043525229
-0.0078472378
0.0078166411
-0.012438344
0.012337785
-0.017723634
0.017929377
-0.023638609
0.024586476
-0.030115673
0.032281498
-0.037082245
0.040961191
-0.044459206
0.050545333
-0.052160746
0.060927535
-0.060095871
0.07197832
-0.068171281
0.083550346
-0.076295188
0.095485377
-0.084381665
0.10762225
-0.092355003
0.1198048
-0.10015346
0.13188851
-0.10773178
0.14374393
-0.11506285
0.15524907
-0.12214076
-0.1289154
0.16630136
0.00056617525
-0.0016074735
0.0022279637
-0.005678938
0.0050006577
-0.010619932
0.0088940913
-0.016331778
0.01390538
-0.022734923
0.020012052
-0.029745281
0.02716671
-0.037270331
0.035293692
-0.045209227
0.044288183
-0.053453697
0.054018147
-0.06189071
0.064329124
-0.070406849
0.075051557
-0.078893714
0.086009956
-0.087253587
0.097032918
-0.095404627
0.10796285
-0.10328494
0.1186643
-0.11085491
0.12902992
-0.11809741
0.13898316
-0.12501609
0.14847501
-0.1316326
-0.1379462
0.15750581
0.00065089217
-0.0022583657
0.0025243638
-0.0075524097
0.0056036822
-0.01369925
0.0098645463
-0.020592642
0.015264732
-0.028135109
0.021736575
-0.036217124
0.029182691
-0.044716447
0.037475145
-0.053501682
0.046458289
-0.062436841
0.055955149
-0.071387571
0.065776756
-0.080228456
0.075733334
-0.088850292
0.08564602
-0.097166272
0.095357661
-0.10511627
0.10474142
-0.1126687
0.11370634
-0.11981982
0.12219943
-0.1265905
0.13020454
-0.1330212
0.13773788
-0.13916594
-0.14506848
0.14486015
0.00073064197
-0.0029890077
0.0027921087
-0.0096138765
0.0061266217
-0.017033763
0.010666791
-0.025132812
0.016322765
-0.033791083
0.022975395
-0.042869754
0.030474615
-0.052215667
0.038642613
-0.061669679
0.047281422
-0.071075649
0.056183973
-0.080290123
0.065147118
-0.0891916
0.073984807
-0.097687981
0.082539653
-0.10572112
0.090691416
-0.11326803
0.098361504
-0.12033879
0.10551327
-0.12697159
0.11214868
-0.13322591
0.1183022
-0.13917472
0.12403333
-0.14489707
-0.15046411
0.12942896
0.00080073736
-0.003789745
0.0030139381
-0.011827077
0.0065329396
-0.020552765
0.011240125
-0.029839997
0.016992801
-0.039543758
0.023618677
-0.04949563
0.03091837
-0.05951536
0.038673488
-0.069424797
0.046658946
-0.079061107
0.05465756
-0.088288737
0.062474597
-0.097008637
0.069950055
-0.10516344
0.076967012
-0.11273807
0.083455086
-0.11975611
0.089389026
-0.12627273
0.094783153
-0.13236572
0.099683063
-0.13812582
0.10415617
-0.14364783
0.1082827
-0.1490236
-0.15433429
0.11215288
0.00085606468
-0.0046458097
0.0031720814
-0.014143094
0.0067872673
-0.024167951
0.011529867
-0.034582597
0.017203522
-0.045217413
0.023586656
-0.055878764
0.030439994
-0.066368699
0.037519449
-0.076504252
0.044591909
-0.086133568
0.05145109
-0.095147918
0.057930682
-0.10348823
0.063912778
-0.11114554
0.069330588
-0.11815588
0.074165571
-0.12459109
0.078440063
-0.13054722
0.082207071
-0.13613272
0.085539162
-0.14145791
0.088518147
-0.14662681
0.091226871
-0.15173232
-0.1568527
0.093745283
0.00089026791
-0.0055360776
0.0032483019
-0.016501128
0.0068576582
-0.027777307
0.011492519
-0.039217458
0.01690688
-0.050631774
0.022838975
-0.061810859
0.029023751
-0.072553475
0.035209322
-0.082689822
0.041173977
-0.092098223
0.046740412
-0.10071435
0.051784626
-0.10853244
0.056238324
-0.11559923
0.060084996
-0.12200256
0.06335104
-0.12785713
0.06609394
-0.13329012
0.068389715
-0.1384285
0.070321516
-0.14338971
0.071970763
-0.14827606
0.073411387
-0.15317295
-0.15814829
0.074706975
0.00089982317
-0.0064359008
0.0032333964
-0.018834701
0.0067291935
-0.031273104
0.011111219
-0.043599483
0.016092535
-0.055613091
0.021384674
-0.067102998
0.026713927
-0.077882727
0.031839139
-0.087815034
0.036567077
-0.096826162
0.040762223
-0.1049095
0.044349376
-0.1121196
0.047309197
-0.11855905
0.049668194
-0.12436155
0.051485542
-0.12967448
0.052839192
-0.13464377
0.053813426
-0.13940273
0.054489257
-0.14406554
0.054938307
-0.14872511
0.055219976
-0.15345461
0.055380351
-0.15830867
-0.00020238067
0.00020238063
6.8550166e-11
-0.00067775418
0.00047537342
1.017338e-10
-0.0013424405
0.00066468621
1.1995565e-10
-0.0021323167
0.00078987609
1.2776199e-10
-0.0029958036
0.00086348681
1.2532519e-10
-0.0038907783
0.00089497463
1.1280628e-10
-0.0047823404
0.00089156197
9.573447e-11
-0.0056409427
0.00085860224
7.5183787e-11
-0.0064409209
0.00079997824
5.4976002e-11
-0.0071593428
0.00071842184
3.5563814e-11
-0.0077750893
0.00061574653
1.8474915e-11
-0.0082681198
0.00049303048
3.4374515e-12
-0.008618892
0.00035077218
-9.3691722e-12
-0.0088079287
0.00018903676
-2.0498548e-11
-0.0088155628
7.6341098e-06
-3.0003262e-11
-0.0086219607
-0.00019360204
-3.8447882e-11
-0.0082073864
-0.00041457425
-4.5984288e-11
-0.0075517961
-0.00065559032
-5.2614093e-11
-0.0066344323
-0.00091736377
-5.8598793e-11
-0.0011862909
-0.0054481413
-6.3970984e-11
-0.00018797661
0.00039035725
-0.0006250138
0.00091241064
-0.001228766
0.0012684384
-0.0019352137
0.0014963238
-0.0026921646
0.0016204377
-0.0034563147
0.0016591248
-0.0041911016
0.0016263489
-0.0048648951
0.0015323957
-0.0054495594
0.0013846426
-0.0059193183
0.0011881808
-0.0062498393
0.00094626754
-0.0064174921
0.00066068321
-0.0063987434
0.00033202353
-0.0061696785
-4.0028203e-05
-0.0057056754
-0.000456369
-0.0049813251
-0.00091795232
-0.0039706474
-0.0014252519
-0.0026470115
-0.0019792262
-0.00098298626
-0.002581389
-0.0032019243
0.0010326472
-0.00015892945
0.00054928671
-0.00051889627
0.0012723775
-0.0010007787
0.0017503208
-0.0015412716
0.0020368168
-0.0020873645
0.0021665307
-0.0025937506
0.0021655109
-0.003020882
0.0020534803
-0.0033333026
0.0018448163
-0.0034983025
0.0015496425
-0.0034848419
0.0011747202
-0.0032626674
0.00072409297
-0.0028015915
0.00019960737
-0.0020708599
-0.00039870814
-0.0010386365
-0.0010722515
0.00032842491
-0.0018234305
0.0020654581
-0.0026549855
0.0042093436
-0.0035691375
0.0067984028
-0.0045682853
0.0098723287
-0.005655315
-0.0067799991
0.013450403
-0.0001175678
0.00066685452
-0.00036700072
0.0015218104
-0.0006735167
0.0020568369
-0.00097482827
0.0023381284
-0.0012168541
0.0024085566
-0.0013515888
0.0023002456
-0.0013354455
0.0020373369
-0.0011278007
0.0016371716
-0.00068979842
0.0011116403
1.6602411e-05
0.00046831939
0.0010294121
-0.00028871672
0.002387257
-0.0011582375
0.0041299248
-0.002141376
0.0062988461
-0.0032411728
0.0089376003
-0.0044621847
0.012092473
-0.005809858
0.015812829
-0.0072894936
0.020150814
-0.0089062703
0.02516114
-0.010665641
-0.012493038
0.030874179
-6.6907656e-05
0.00073376217
-0.00017916571
0.0016340685
-0.00026653055
0.0021442017
-0.00026768324
0.0023392811
-0.00012717775
0.0022680511
0.0002061959
0.001966872
0.00078074014
0.0014627927
0.0016430193
0.00077489236
0.0028388295
-8.4169905e-05
0.0044139842
-0.0011068353
0.0064148778
-0.0022896104
0.0088889024
-0.0036322621
0.011884773
-0.0051372461
0.015452856
-0.0068092559
0.019645545
-0.0086548746
0.024517883
-0.010682195
0.030128432
-0.012900043
0.036539793
-0.015317631
0.043819364
-0.017945212
-0.02068315
0.052009476
-9.9838135e-06
0.00074374599
3.4538809e-05
0.0015895459
0.00019989997
0.0019788405
0.00054678526
0.0019923958
0.001132281
0.0016825554
0.0020110348
0.0010881181
0.00323622
0.00023760749
0.0048604181
-0.00084930575
0.0069362768
-0.0021600286
0.0095168841
-0.0036874425
0.012655977
-0.005428703
0.016408045
-0.00738433
0.020828258
-0.0095574595
0.025972305
-0.011953303
0.031896296
-0.014578865
0.038657058
-0.017442958
0.046313326
-0.020556311
0.054927799
-0.023932104
0.064570972
-0.027588385
-0.03140641
0.075294232
5.0752882e-05
0.0006929931
0.00026566444
0.0013746343
0.00070827034
0.0015362346
0.0014390606
0.0012616056
0.0025168707
0.0006047453
0.0039996436
-0.00039465483
0.0059450262
-0.0017077751
0.0084107582
-0.0033150377
0.011454802
-0.0052040726
0.015135313
-0.0073679535
0.01951037
-0.0098037595
0.024637447
-0.012511407
0.030572681
-0.015492693
0.03736997
-0.018750593
0.045080044
-0.022288938
0.053749912
-0.026112827
0.063423686
-0.030230085
0.074145963
-0.034654381
0.085970775
-0.039413197
-0.044389511
0.098953876
0.00011379855
0.00057919454
0.00050851268
0.00097992021
0.001246004
0.00079874332
0.0023868178
0.0001207918
0.0039913065
-0.00099974343
0.0061199749
-0.0025233232
0.0088334607
-0.0044212609
0.012192358
-0.0066739349
0.016256812
-0.0092685265
0.021085773
-0.012196915
0.02673596
-0.015453947
0.033260533
-0.01903598
0.040707504
-0.022939664
0.049117932
-0.027161021
0.058524027
-0.031695033
0.06894752
-0.03653632
0.08039949
-0.041682054
0.092883472
-0.047138363
0.10640697
-0.052936691
-0.058996833
0.12101429
0.00017849867
0.00040069587
0.00076004149
0.00039837739
0.0018053657
-0.00024658093
0.0033747629
-0.0014486054
0.005529075
-0.0031540555
0.0083294378
-0.0053236861
0.011836657
-0.0079284799
0.016110284
-0.010947562
0.021207337
-0.014365579
0.027180677
-0.018170255
0.034077082
-0.022350351
0.041935042
-0.02689394
0.050782335
-0.031786957
0.060633384
-0.037012071
0.071486413
-0.042548061
0.083320429
-0.048370337
0.096093025
-0.05445465
0.10974171
-0.060787049
0.1241974
-0.067392379
-0.07427588
0.13947645
0.00024513066
0.0010199631
0.0023833719
0.0043939196
0.0071106417
0.01059204
0.0148945
0.020070367
0.026165702
0.033217784
0.041252511
0.05028184
0.060301428
0.071288536
0.083200033
0.095969896
0.10950448
0.12366494
0.13818454
0.15258886
-0.0035074433
-0.0019406979
-9.2650465e-11
-0.0012855753
-0.0022218679
-9.85411e-11
0.0011951281
-0.0024807033
-1.020362e-10
0.0038777672
-0.0026826391
-1.017714e-10
0.0067355386
-0.0028577713
-9.5924746e-11
0.0097511368
-0.0030155981
-8.4169389e-11
0.012905628
-0.0031544907
-6.547878e-11
0.016180989
-0.0032753611
-3.9346931e-11
0.019561519
-0.0033805303
-5.198936e-12
0.023033
-0.0034714812
3.7614152e-11
0.026582146
-0.0035491459
8.850532e-11
0.030196532
-0.0036143864
1.4722266e-10
0.033864516
-0.0036679842
2.1221997e-10
0.037575102
-0.0037105861
2.8217999e-10
0.041317839
-0.0037427373
3.5424452e-10
0.045082756
-0.0037649171
4.255357e-10
0.048860312
-0.003777557
4.913363e-10
0.052641365
-0.0037810537
5.4686876e-10
0.056417148
-0.0037757837
5.8562056e-10
0.060179263
-0.003762115
6.0141888e-10
0.063919678
-0.0037404157
5.8679848e-10
0.067630737
-0.00371106
5.3559092e-10
0.071305169
-0.0036744327
4.4133588e-10
0.0749361
-0.0036309309
3.0069261e-10
0.078517064
-0.0035809642
1.1160773e-10
0.082042018
-0.0035249538
-1.2223864e-10
0.085505349
-0.0034633301
-3.9414451e-10
0.088901879
-0.00339653
-6.8880348e-10
0.092226873
-0.0033249929
-9.8717858e-10
0.095476032
-0.0032491574
-1.2598421e-09
0.098645491
-0.0031694582
-1.475885e-09
0.10173182
-0.0030863221
-1.5952045e-09
0.10473198
-0.0030001654
-1.5840245e-09
0.10764338
-0.0029113923
-1.405468e-09
0.11046377
-0.0028203929
-1.0439376e-09
0.11319131
-0.0027275439
-4.9083751e-10
0.11582452
-0.0026332089
2.2127131e-10
0.11836226
-0.0025377411
1.0455524e-09
0.12080375
-0.002441491
1.8801794e-09
0.12314856
-0.0023448064
2.617754e-09
0.12539663
-0.0022480753
3.1099704e-09
0.12754828
-0.0021516509
3.233719e-09
0.1296045
-0.0020562264
2.8869738e-09
0.13156629
-0.0019617918
2.0540906e-09
0.13343777
-0.0018714788
7.9832947e-10
0.13521747
-0.0017796984
-7.0968608e-10
0.13692991
-0.001712444
-2.1839016e-09
0.13853094
-0.0016010291
-3.288186e-09
0.14022161
-0.0016906628
-3.8677875e-09
-0.001335544
-2.4740028e-09
0.0028533352
-0.003761386
0.0049505637
-0.0043190964
0.0072935148
-0.0048236545
0.0098197461
-0.0052088703
0.012508196
-0.0055462216
0.015346541
-0.0058539427
0.018318039
-0.0061259889
0.021406285
-0.0063636068
0.024597259
-0.0065715049
0.027878201
-0.0067524227
0.031236978
-0.0069079228
0.03466211
-0.007039518
0.038142739
-0.0071486141
0.041668522
-0.0072363685
0.045229539
-0.0073037548
0.048816259
-0.0073516372
0.052419504
-0.0073808012
0.056030428
-0.0073919779
0.059640513
-0.0073858693
0.063241568
-0.0073631696
0.066825733
-0.0073245807
0.070385496
-0.0072708226
0.073913704
-0.0072026407
0.077403581
-0.0071208084
0.080848744
-0.007026127
0.084243213
-0.0069194225
0.087581424
-0.0068015411
0.090858236
-0.0066733428
0.094068938
-0.0065356946
0.097209243
-0.0063894622
0.10027529
-0.0062355042
0.10326363
-0.0060746645
0.10617123
-0.0059077671
0.10899545
-0.0057356121
0.11173403
-0.0055589728
0.11438508
-0.0053785961
0.11694708
-0.0051952042
0.11941884
-0.0050094993
0.12179953
-0.0048221789
0.12408866
-0.0046339356
0.12628612
-0.0044455444
0.12839218
-0.0042577099
0.13040777
-0.0040718163
0.13233383
-0.0038878478
0.13417439
-0.003712035
0.13592799
-0.0035332992
0.13761869
-0.0034031501
0.13920339
-0.0031857215
0.14087791
-0.0033651888
-0.0026686344
0.015021817
-0.0053327995
0.016853002
-0.0061502813
0.018906633
-0.0068772851
0.02111278
-0.0074150181
0.023459811
-0.0078932525
0.025944073
-0.0083382043
0.028552947
-0.0087348636
0.031272955
-0.0090836147
0.034092996
-0.0093915461
0.037002841
-0.0096622675
0.03999237
-0.0098974512
0.043051721
-0.01009887
0.046171372
-0.010268265
0.049342068
-0.010407064
0.05255478
-0.010516466
0.055800696
-0.010597554
0.059071228
-0.010651333
0.062358015
-0.010678765
0.065652935
-0.010680789
0.068948123
-0.010658358
0.072235993
-0.010612451
0.07550926
-0.010544089
0.078760958
-0.01045434
0.08198447
-0.01034432
0.085173539
-0.010215195
0.088322288
-0.010068172
0.091425236
-0.009904489
0.094477303
-0.0097254103
0.097473819
-0.00953221
0.10041052
-0.0093261655
0.10328356
-0.0091085418
0.10608948
-0.0088805856
0.10882523
-0.008643515
0.11148813
-0.0083985136
0.11407588
-0.0081467273
0.11658655
-0.0078892632
0.11901854
-0.0076271942
0.12137061
-0.0073615648
0.12364184
-0.0070934142
0.12583168
-0.0068237765
0.12793995
-0.0065538103
0.12996681
-0.0062845715
0.13191312
-0.0060181286
0.13377975
-0.0057544757
0.13557058
-0.0055028594
0.13728423
-0.0052469565
0.13894382
-0.0050627355
0.14050854
-0.0047504471
0.14216364
-0.0050202899
-0.0040099651
0.032057551
-0.0065161714
0.033472835
-0.0075655653
0.035078433
-0.0084828829
0.036801368
-0.0091379532
0.038642326
-0.0097342112
0.040607606
-0.010303484
0.042690037
-0.010817294
0.044880095
-0.011273673
0.047170204
-0.011681656
0.049553138
-0.012045201
0.052021189
-0.012365502
0.054566402
-0.012644082
0.057180766
-0.012882629
0.059856239
-0.013082537
0.06258476
-0.013244987
0.065358285
-0.013371079
0.068168833
-0.013461882
0.071008529
-0.013518461
0.07386964
-0.0135419
0.076744616
-0.013533334
0.079626126
-0.01349396
0.08250709
-0.013425053
0.085380716
-0.013327966
0.088240523
-0.013204127
0.09108037
-0.013055042
0.093894469
-0.012882271
0.096677411
-0.012687431
0.099424168
-0.012472167
0.10213011
-0.012238147
0.10479098
-0.011987042
0.10740295
-0.011720509
0.10996255
-0.011440185
0.1124667
-0.011147668
0.1149127
-0.010844515
0.11729821
-0.010532234
0.11962123
-0.010212283
0.12188011
-0.0098860774
0.12407355
-0.0095549994
0.12620056
-0.0092204245
0.12826051
-0.0088837259
0.13025314
-0.0085464434
0.13217855
-0.008209985
0.13403752
-0.0078770953
0.13583085
-0.0075478027
0.13756223
-0.0072342466
0.1392305
-0.0069152266
0.14085738
-0.006689607
0.14240554
-0.006298607
0.14404495
-0.0066597037
-0.0053754344
0.05264985
-0.0071565456
0.053490522
-0.0084062369
0.054484726
-0.0094770876
0.055566777
-0.010220004
0.056751492
-0.010918926
0.058053165
-0.011605157
0.059470307
-0.012234436
0.060998051
-0.012801417
0.062632187
-0.013315792
0.064368119
-0.013781133
0.066200324
-0.014197708
0.068122536
-0.014566294
0.070127989
-0.014888082
0.072209582
-0.015164131
0.07435997
-0.015395375
0.07657164
-0.015582748
0.078837
-0.015727242
0.081148458
-0.015829918
0.083498486
-0.015891928
0.085879682
-0.01591453
0.088284821
-0.0158991
0.090706903
-0.015847135
0.09313919
-0.015760252
0.095575241
-0.015640179
0.098008945
-0.015488746
0.10043454
-0.015307863
0.10284662
-0.015099512
0.10524017
-0.014865717
0.10761055
-0.014608533
0.10995353
-0.014330018
0.11226524
-0.014032218
0.1145422
-0.013717151
0.11678133
-0.013386794
0.11897988
-0.01304307
0.12113549
-0.012687843
0.12324613
-0.012322923
0.12531012
-0.011950063
0.1273261
-0.01157098
0.12929306
-0.011187386
0.13121033
-0.010800994
0.13307761
-0.010413725
0.13489497
-0.010027343
0.13666313
-0.0096452597
0.1383829
-0.0092675705
0.14005781
-0.0089091526
0.14168697
-0.0085443918
0.14329044
-0.0082930754
0.14483533
-0.0078434928
0.14647269
-0.0082970688
-0.0067882862
0.075223292
-0.007085605
0.075328331
-0.008511276
0.075552781
-0.0097015374
0.075853159
-0.010520382
0.0762575
-0.011323268
0.076782659
-0.012130316
0.07743167
-0.012883448
0.078204465
-0.013574212
0.079099353
-0.014210679
0.080113185
-0.014794964
0.081241718
-0.015326242
0.082479658
-0.015804234
0.083820821
-0.016229245
0.085258427
-0.016601737
0.086785301
-0.016922248
0.088393991
-0.017191438
0.090076878
-0.01741013
0.091826287
-0.017579327
0.093634573
-0.017700214
0.0954942
-0.017774157
0.097397805
-0.017802704
0.099338244
-0.017787575
0.10130865
-0.01773066
0.10330247
-0.017633995
0.10531347
-0.017499749
0.1073358
-0.017330195
0.10936399
-0.017127695
0.11139293
-0.016894665
0.11341796
-0.016633556
0.11543477
-0.016346828
0.11743947
-0.016036923
0.11942857
-0.015706252
0.12139896
-0.015357176
0.12334788
-0.014991991
0.12527296
-0.014612927
0.12717218
-0.014222145
0.12904387
-0.013821748
0.13088668
-0.01341379
0.13269962
-0.013000325
0.13448204
-0.012583414
0.13623367
-0.012165363
0.13795463
-0.011748302
0.13964567
-0.011336301
0.14130767
-0.010929563
0.14294404
-0.010545524
0.14455433
-0.010154685
0.14615675
-0.0098954891
0.14772355
-0.0094102974
0.14938446
-0.0099579749
-0.0082806375
0.098026949
-0.0061586773
0.097259746
-0.007744074
0.096583531
-0.0090253215
0.095999174
-0.009936025
0.095542805
-0.010866899
0.095225657
-0.011813168
0.095053098
-0.012710888
0.095029131
-0.013550245
0.095153289
-0.014334837
0.095422308
-0.015063983
0.095831827
-0.015735761
0.096376438
-0.016348845
0.097049657
-0.016902463
0.097844251
-0.017396331
0.098752538
-0.017830535
0.099766546
-0.018205446
0.10087814
-0.018521724
0.10207914
-0.018780325
0.10336141
-0.018982489
0.10471698
-0.01912972
0.10613804
-0.019223771
0.1076171
-0.019266629
0.10914693
-0.019260493
0.11072068
-0.019207748
0.11233188
-0.01911094
0.11397443
-0.018972749
0.11564268
-0.018795947
0.1173314
-0.01858338
0.11903577
-0.01833793
0.12075143
-0.018062483
0.12247442
-0.017759913
0.12420121
-0.017433043
0.12592867
-0.017084643
0.12765409
-0.016717406
0.12937511
-0.016333945
0.13108976
-0.015936794
0.13279642
-0.015528414
0.13449385
-0.015111218
0.13618114
-0.014687619
0.13785776
-0.01426003
0.13952356
-0.013831164
0.14117879
-0.013403526
0.14282433
-0.012981843
0.14446123
-0.012566464
0.14609291
-0.012177205
0.14771946
-0.011781236
0.14935718
-0.011533215
0.15098399
-0.011037099
0.15270703
-0.011681015
-0.0098942499
0.1191907
-0.0043350904
0.11749816
-0.0060515327
0.11585871
-0.0073858709
0.11435625
-0.0084335692
0.11302703
-0.0095376767
0.11186855
-0.010654689
0.11088628
-0.011728621
0.11008651
-0.01275047
0.10946864
-0.013716967
0.10902808
-0.014623422
0.10875902
-0.0154667
0.10865479
-0.016244622
0.10870781
-0.016955483
0.10890977
-0.017598285
0.10925193
-0.018172698
0.10972536
-0.018678877
0.11032103
-0.019117397
0.11102994
-0.019489234
0.1118432
-0.019795751
0.11275214
-0.020038657
0.11374835
-0.020219977
0.11482374
-0.020342024
0.11597062
-0.020407373
0.11718169
-0.020418817
0.11845009
-0.020379342
0.11976943
-0.020292081
0.12113376
-0.020160284
0.12253765
-0.019987272
0.12397613
-0.019776407
0.1254447
-0.019531056
0.12693935
-0.019254556
0.1284565
-0.018950195
0.12999304
-0.018621186
0.13154629
-0.018270652
0.13311397
-0.017901625
0.13469421
-0.017517037
0.13628554
-0.017119744
0.13788686
-0.016712538
0.13949745
-0.01629821
0.14111698
-0.01587956
0.14274553
-0.015459715
0.14438359
-0.015041581
0.14603229
-0.014630544
0.14769297
-0.014227142
0.14936916
-0.013853393
0.15106161
-0.013473689
0.1527848
-0.013256401
0.1545225
-0.012774801
0.1563592
-0.013517716
-0.011680469
0.13689752
-0.0017561646
0.13437961
-0.0035336224
0.1318211
-0.0048273602
0.1294641
-0.0060765671
0.12733581
-0.0074093902
0.12541761
-0.008736493
0.12371234
-0.010023346
0.12222507
-0.011263205
0.12095427
-0.012446162
0.11989415
-0.013563306
0.11903722
-0.014609767
0.11837513
-0.015582526
0.11789887
-0.01647923
0.11759893
-0.017298347
0.11746545
-0.018039209
0.11748839
-0.018701827
0.11765777
-0.019286768
0.11796364
-0.019795108
0.11839629
-0.020228399
0.11894625
-0.020588622
0.11960442
-0.020878141
0.12036206
-0.021099664
0.12121089
-0.021256206
0.12214311
-0.021351038
0.12315142
-0.021387648
0.12422903
-0.021369698
0.12536972
-0.021300968
0.12656777
-0.021185326
0.12781803
-0.021026673
0.12911589
-0.020828912
0.13045724
-0.020595908
0.13183851
-0.02033146
0.1332566
-0.020039277
0.13470891
-0.01972296
0.13619328
-0.019386001
0.13770802
-0.019031775
0.13925185
-0.018663569
0.1408239
-0.018284586
0.14242372
-0.017898037
0.14405129
-0.017507129
0.14570701
-0.017115436
0.14739172
-0.016726288
0.14910692
-0.016345742
0.15085434
-0.015974567
0.15263776
-0.015636816
0.15445871
-0.015294638
0.15632993
-0.015127615
0.15824119
-0.014686066
0.16025474
-0.015531266
-0.013699328
0.15005339
0.00077930807
0.14676448
-0.00024471933
0.14346719
-0.0015300722
0.14041947
-0.0030288442
0.13762464
-0.0046145577
0.13507644
-0.0061882956
0.13277672
-0.0077236203
0.13072555
-0.0092120347
0.12892049
-0.01064111
0.12735636
-0.011999171
0.12602531
-0.013278724
0.12491796
-0.014475169
0.12402411
-0.015585384
0.12333312
-0.016607353
0.12283399
-0.017540085
0.12251563
-0.018383462
0.12236695
-0.01913809
0.12237705
-0.019805205
0.12253526
-0.020386613
0.12283127
-0.020884633
0.12325517
-0.021302039
0.12379752
-0.021642008
0.12444938
-0.021908067
0.12520238
-0.022104042
0.12604874
-0.022234003
0.12698125
-0.022302208
0.12799333
-0.022313055
0.12907903
-0.022271024
0.13023299
-0.022180634
0.13145047
-0.022046393
0.13272732
-0.021872757
0.13405997
-0.021664104
0.13544539
-0.021424697
0.1368811
-0.021158675
0.13836514
-0.02087004
0.13989603
-0.020562663
0.14147276
-0.020240299
0.14309479
-0.019906616
0.14476202
-0.019565271
0.14647481
-0.01921992
0.14823399
-0.018874615
0.15004084
-0.018533132
0.15189732
-0.018202225
0.15380566
-0.017882905
0.15577002
-0.017601177
0.15779262
-0.017317237
0.15988508
-0.017220078
0.16204162
-0.016842607
0.16430728
-0.017796926
-0.016015773
0.18891072
0.0053813279
-0.19351274
0.18510076
0.0035652392
0.18170881
0.0018618809
0.17856377
0.00011619618
0.1756283
-0.0016790877
0.17287737
-0.0034373636
0.17029275
-0.0051390022
0.16786545
-0.0067847379
0.1655916
-0.0083672538
0.16346903
-0.0098766007
0.16149588
-0.01130558
0.15967005
-0.012649342
0.1579889
-0.013904231
0.15644913
-0.015067583
0.15504683
-0.016137778
0.15377751
-0.017114151
0.15263627
-0.017996849
0.15161781
-0.01878674
0.15071654
-0.019485348
0.1499267
-0.020094793
0.14924239
-0.020617726
0.14865766
-0.021057273
0.14816656
-0.021416967
0.14776321
-0.021700699
0.14744186
-0.021912649
0.14719688
-0.022057228
0.14702284
-0.022139019
0.14691454
-0.022162717
0.14686698
-0.02213308
0.14687546
-0.022054868
0.14693551
-0.021932809
0.14704296
-0.021771554
0.14719391
-0.021575653
0.14738477
-0.021349528
0.14761219
-0.021097468
0.14787316
-0.020823629
0.14816491
-0.020532053
0.14848499
-0.020226697
0.14883123
-0.019911509
0.14920175
-0.019590443
0.14959502
-0.019267883
0.15000981
-0.01894792
0.15044537
-0.018637786
0.1509012
-0.018338734
0.15137794
-0.018077921
0.15187547
-0.017814762
0.15239833
-0.017742939
0.15294215
-0.017386425
0.15353025
-0.018385029
-0.016611833
0.21685955
0.0087795782
-0.2202578
0.21338574
0.007039042
0.21017302
0.0050746077
0.20706779
0.0032214204
0.20402129
0.0013674156
0.20106446
-0.00048053933
0.1982142
-0.0022887408
0.19547502
-0.0040455523
0.19285281
-0.0057450451
0.19035441
-0.0073782011
0.18798502
-0.0089361898
0.18574804
-0.010412358
0.18364546
-0.01180165
0.18167798
-0.013100106
0.17984507
-0.014304869
0.1781451
-0.015414185
0.17657553
-0.016427281
0.17513305
-0.017344255
0.1738137
-0.018165998
0.17261303
-0.018894122
0.17152619
-0.019530891
0.17054806
-0.020079142
0.16967332
-0.020542221
0.16889652
-0.020923906
0.16821222
-0.021228342
0.16761496
-0.021459968
0.16709939
-0.02162345
0.16666028
-0.021723614
0.16629259
-0.021765385
0.16599145
-0.021753727
0.16575223
-0.021693593
0.16557056
-0.021589884
0.16544232
-0.02144741
0.16536366
-0.021270868
0.16533102
-0.021064829
0.16534113
-0.020833734
0.16539099
-0.020581918
0.16547793
-0.02031363
0.16559954
-0.020033125
0.16575377
-0.019744669
0.16593886
-0.019452977
0.16615344
-0.019162502
0.16639653
-0.01888087
0.16666764
-0.018609845
0.16696665
-0.018376935
0.16729482
-0.018142933
0.16765143
-0.01809955
0.16804475
-0.01777974
0.168457
-0.018797281
-0.017089197
0.24376834
0.011503455
-0.24649222
0.24091798
0.0098893991
0.23806486
0.0079277358
0.23521798
0.0060682963
0.23234027
0.0042451276
0.22945254
0.0024071856
0.22658602
0.00057777685
0.22376001
-0.0012195391
0.22099042
-0.0029754544
0.21829319
-0.0046809693
0.21568218
-0.0063251759
0.21316838
-0.0078985622
0.21076041
-0.0093936836
0.20846483
-0.010804527
0.20628628
-0.012126313
0.20422763
-0.013355533
0.20229023
-0.014489889
0.20047414
-0.015528165
0.19877827
-0.016470125
0.19720059
-0.017316438
0.19573828
-0.018068581
0.1943879
-0.01872876
0.19314549
-0.019299819
0.19200675
-0.019785158
0.19096706
-0.020188653
0.19002165
-0.020514566
0.18916568
-0.020767476
0.18839426
-0.02095219
0.18770255
-0.021073682
0.18708584
-0.021137017
0.18653955
-0.021147297
0.18605927
-0.021109606
0.18564083
-0.02102897
0.18528029
-0.020910324
0.18497395
-0.020758496
0.18471842
-0.0205782
0.18451055
-0.020374054
0.18434753
-0.020150604
0.18422681
-0.019912411
0.18414621
-0.019664063
0.18410384
-0.019410607
0.18409823
-0.019156896
0.18412822
-0.018910861
0.18419342
-0.018675043
0.18429295
-0.018476463
0.18442955
-0.018279535
0.18459688
-0.018266874
0.18481682
-0.01799968
0.18502563
-0.019006098
-0.017425394
0.26927594
0.013536342
-0.27130882
0.26710796
0.012057373
0.26476628
0.010269424
0.26232713
0.0085074449
0.25979846
0.0067737956
0.25719045
0.0050151932
0.25452923
0.003239002
0.25183896
0.0014707306
0.24913964
-0.000276138
0.24645108
-0.0019924119
0.24379257
-0.0036666679
0.24118125
-0.0052872395
0.23863184
-0.0068442737
0.23615684
-0.0083295203
0.23376653
-0.0097360043
0.23146908
-0.011058085
0.22927068
-0.012291486
0.22717571
-0.013433202
0.22518699
-0.014481406
0.22330591
-0.015435357
0.22153265
-0.016295315
0.21986633
-0.017062442
0.21830522
-0.017738709
0.21684685
-0.018326795
0.2154882
-0.018829996
0.21422576
-0.01925213
0.21305573
-0.019597439
0.21197404
-0.019870509
0.21097654
-0.020076178
0.21005898
-0.020219459
0.20921716
-0.020305473
0.20844693
-0.020339383
0.20774431
-0.020326344
0.20710545
-0.020271465
0.20652673
-0.020179778
0.20600477
-0.020056235
0.20553642
-0.019905711
0.20511885
-0.019733033
0.2047495
-0.019543057
0.20442613
-0.019340698
0.20414685
-0.019131326
0.20391018
-0.018920218
0.20371485
-0.018715536
0.2035606
-0.018520795
0.20344598
-0.018361841
0.20337493
-0.018208486
0.2033363
-0.018228241
0.20336335
-0.018026733
0.20335093
-0.01899368
-0.0175982
0.29298653
0.014867433
-0.29431762
0.29150734
0.013536561
0.2897849
0.011991858
0.28788633
0.010406016
0.28584649
0.0088136389
0.28367619
0.0071854925
0.28139385
0.0055213456
0.2790227
0.0038418753
0.27658406
0.0021625047
0.27409808
0.00049356691
0.27158497
-0.0011535543
0.26906444
-0.0027667163
0.26655483
-0.004334665
0.26407273
-0.0058474185
0.26163288
-0.0072961493
0.25924803
-0.0086732426
0.25692897
-0.0099724171
0.25468449
-0.011188727
0.25252159
-0.012318506
0.25044554
-0.013359309
0.24846007
-0.014309841
0.2465675
-0.015169873
0.24476894
-0.015940148
0.24306443
-0.016622284
0.2414531
-0.017218673
0.23993335
-0.017732376
0.23850294
-0.018167027
0.23715916
-0.018526729
0.23589894
-0.01881596
0.23471896
-0.019039482
0.23361575
-0.019202261
0.23258576
-0.019309389
0.23162544
-0.019366029
0.23073134
-0.019377359
0.22990009
-0.019348537
0.22912854
-0.019284685
0.22841372
-0.019190889
0.22775291
-0.019072223
0.22714367
-0.018933814
0.22658386
-0.018780887
0.22607165
-0.018619122
0.22560566
-0.018454227
0.22518467
-0.018294538
0.22480853
-0.018144657
0.22447544
-0.018028754
0.22419019
-0.017923238
0.22393796
-0.017976009
0.22376038