/*--------------------------------*- C++ -*----------------------------------*\
  =========                 |
  \\      /  F ield         | OpenFOAM: The Open Source CFD Toolbox
   \\    /   O peration     | Website:  https://openfoam.org
    \\  /    A nd           | Version:  6
     \\/     M anipulation  |
\*---------------------------------------------------------------------------*/
FoamFile
{
    version     2.0;
    format      ascii;
    class       volSymmTensorField;
    location    "128";
    object      UPrime2Mean;
}
// * * * * * * * * * * * * * * * * * * * * * * * * * * * * * * * * * * * * * //

dimensions      [0 2 -2 0 0 0 0];

internalField   nonuniform List<symmTensor> 
9200
(
(0.00015443234 -0.00011987896 5.62905e-22 9.6219627e-05 -3.0123955e-22 9.0843994e-39)
(0.00095006638 -0.00076102118 1.4348994e-21 0.00061191378 -1.070889e-21 9.8805051e-39)
(0.0019158208 -0.001487735 1.8077645e-22 0.0011618483 -1.3622166e-22 5.4182668e-39)
(0.0030123515 -0.002186274 -2.153894e-21 0.0016041352 1.5159953e-21 1.0796879e-38)
(0.0040871191 -0.0028039107 9.7446595e-23 0.0019561824 -8.2454554e-23 1.5836943e-39)
(0.0050649365 -0.0033130014 8.9979152e-22 0.0022179057 -5.9917485e-22 2.4672108e-40)
(0.0058945928 -0.0037042605 -1.9189247e-22 0.0023987542 1.3378047e-22 7.1758437e-40)
(0.0065355644 -0.0039789302 1.7453341e-22 0.0025143314 -1.1832144e-22 4.8332462e-40)
(0.0069606928 -0.0041433021 8.7289268e-22 0.0025795789 -5.3159479e-22 1.3783347e-39)
(0.0071570733 -0.0042062836 6.7644251e-23 0.0026071714 -4.1479408e-23 3.9256488e-42)
(0.0071259468 -0.0041782527 -9.3577737e-22 0.002607547 5.7842783e-22 7.3870102e-40)
(0.0068823407 -0.0040703463 7.8142015e-22 0.0025890426 -5.0180656e-22 9.9942239e-41)
(0.0064538761 -0.0038940085 -1.3908127e-21 0.0025580956 9.4518526e-22 1.5796954e-39)
(0.0058784394 -0.0036607148 -7.038531e-22 0.0025195188 4.8820617e-22 9.9711333e-41)
(0.0052008146 -0.0033817939 1.8241208e-22 0.0024767968 -1.3658349e-22 1.2809726e-41)
(0.0044685908 -0.0030682718 -6.8508283e-22 0.0024323712 5.4205247e-22 1.3337594e-40)
(0.0037276935 -0.0027307294 6.0003313e-22 0.0023880307 -5.1533107e-22 1.6214881e-40)
(0.0030180371 -0.0023793286 4.431813e-22 0.002346153 -3.9895283e-22 6.7001647e-40)
(0.002372777 -0.0020233692 -1.6293001e-23 0.0023099206 3.4389977e-23 1.2394812e-40)
(0.0018276318 -0.0016696351 -9.589588e-24 0.0022568332 3.0823205e-23 1.5363404e-40)
(0.00020364415 -0.00013612988 5.9056152e-23 9.3460048e-05 -2.2764461e-23 1.5957892e-40)
(0.0012105742 -0.00083960966 1.5203498e-21 0.00058409828 -9.8905459e-22 1.0542059e-38)
(0.0023999117 -0.0016168914 -4.9760785e-22 0.0010953577 3.334566e-22 5.7277815e-39)
(0.0036686171 -0.0023324371 -3.8632209e-21 0.0014991106 2.4177533e-21 2.4979184e-38)
(0.0048404815 -0.0029375178 -1.3092319e-22 0.0018136637 8.3620333e-23 3.152392e-40)
(0.0058292032 -0.0034081218 2.9790013e-21 0.0020420919 -1.7621621e-21 8.2610361e-39)
(0.0065828262 -0.0037408638 -1.2199653e-21 0.0021965515 7.1553244e-22 2.8062916e-40)
(0.0070694585 -0.0039436152 -3.6863344e-22 0.002293881 2.1444751e-22 1.0148199e-40)
(0.0072778345 -0.0040288312 1.3974756e-21 0.0023493683 -8.1923186e-22 7.7313395e-40)
(0.0072164292 -0.004010751 -1.6923783e-21 0.0023754492 1.0100337e-21 8.8556253e-40)
(0.0069114165 -0.0039041199 -1.1993806e-21 0.0023818342 7.3485029e-22 1.0979539e-39)
(0.0064038143 -0.0037234558 2.586528e-21 0.0023757288 -1.6514593e-21 5.5809811e-39)
(0.005745411 -0.0034826817 1.2037654e-21 0.002362117 -8.1963072e-22 3.8668257e-40)
(0.0049935991 -0.0031950017 -1.8935436e-21 0.002344094 1.379599e-21 1.919574e-39)
(0.0042057175 -0.0028728924 3.3897852e-22 0.0023231875 -2.6691808e-22 1.6069183e-40)
(0.0034336848 -0.0025281165 -7.5290089e-22 0.0022996395 6.6586534e-22 4.2503413e-40)
(0.0027196075 -0.0021717148 -3.1229305e-22 0.0022727152 3.2604182e-22 1.3448318e-40)
(0.0020928409 -0.0018137891 9.4936455e-22 0.0022411003 -1.083165e-21 2.171252e-39)
(0.0015703228 -0.0014624328 4.490522e-22 0.0022008638 -6.1304222e-22 4.0950775e-40)
(0.0011626282 -0.001125761 -1.9014465e-22 0.0021317728 2.4090794e-22 3.1365636e-39)
(0.00025915205 -0.00014762167 -4.9290086e-22 8.5986523e-05 2.0996403e-22 4.1089002e-39)
(0.0014879045 -0.0008849382 -8.1980433e-22 0.00052769422 4.5544053e-22 4.2839577e-39)
(0.0028962504 -0.0016781104 -9.3754701e-22 0.00097776226 5.4603144e-22 1.0708092e-38)
(0.004309166 -0.0023786554 3.0916947e-23 0.0013279522 -1.7021876e-23 1.1607452e-42)
(0.0055310692 -0.0029445768 4.8560193e-23 0.0015968517 -2.2349217e-23 7.6923255e-39)
(0.0064712917 -0.00335817 1.0456195e-21 0.0017905199 -5.590324e-22 2.15044e-39)
(0.0070866318 -0.0036233739 9.6929518e-23 0.0019227274 -4.9024379e-23 8.9051367e-40)
(0.0073645463 -0.0037548241 -1.7618249e-21 0.0020100741 9.5186937e-22 5.6122441e-40)
(0.0073199574 -0.0037703831 2.0838772e-21 0.0020667189 -1.1555951e-21 1.0629033e-39)
(0.0069910051 -0.0036882432 6.8553433e-22 0.0021034811 -3.9950871e-22 1.1771926e-39)
(0.0064335268 -0.0035257835 -1.8819111e-21 0.0021281128 1.1476266e-21 2.4225399e-39)
(0.0057145505 -0.0032991185 -5.8853201e-22 0.0021456471 3.854647e-22 7.9393515e-40)
(0.0049049626 -0.0030230926 2.1638119e-22 0.0021588013 -1.5143008e-22 2.154861e-39)
(0.0040721372 -0.0027114977 5.0756499e-22 0.0021684201 -3.9902275e-22 3.0781583e-40)
(0.0032736002 -0.0023773075 -1.7633398e-22 0.0021739183 1.555412e-22 2.366423e-40)
(0.0025526508 -0.0020327914 4.1186892e-22 0.002173715 -4.1948058e-22 1.849816e-40)
(0.0019364399 -0.0016894568 -2.842141e-22 0.0021656525 3.4126259e-22 7.0402666e-41)
(0.0014364606 -0.0013577508 -5.7239416e-22 0.0021472479 8.13155e-22 1.7428001e-39)
(0.0010512109 -0.0010463453 -1.5604354e-23 0.0021152986 1.6939684e-23 1.5806264e-39)
(0.0007711317 -0.00076319483 1.9730137e-22 0.0020631415 -4.4216769e-22 1.7630687e-40)
(0.00031907363 -0.00015265533 -3.9136513e-22 7.4471932e-05 1.4428286e-22 2.0409055e-39)
(0.0017677063 -0.00088940337 5.9361045e-22 0.00044857097 -2.9136984e-22 3.7895086e-40)
(0.0033747625 -0.0016608295 5.273533e-22 0.00082223942 -2.6038191e-22 4.4045758e-40)
(0.0048901126 -0.0023162764 1.1532623e-21 0.0011108147 -5.5122571e-22 4.754947e-39)
(0.0061063333 -0.0028227294 1.010757e-21 0.0013322526 -4.8130181e-22 2.1146448e-39)
(0.006938544 -0.0031704999 -1.7677954e-21 0.0014946641 8.4394258e-22 1.6106471e-39)
(0.0073640389 -0.0033707013 -9.8693571e-22 0.0016118135 4.8027864e-22 4.581232e-40)
(0.0074006478 -0.0034431312 0 0.0016983885 0 0)
(0.0070977727 -0.0034087257 1.0746884e-21 0.0017659572 -5.8906622e-22 5.9243478e-39)
(0.0065271182 -0.0032870759 -4.6459881e-22 0.0018225126 2.7730272e-22 2.2445286e-39)
(0.0057726521 -0.0030958489 -2.7197559e-21 0.0018728992 1.6432441e-21 1.9557126e-39)
(0.0049204529 -0.0028509396 -3.4894305e-22 0.0019192901 2.225144e-22 4.0067183e-40)
(0.0040493474 -0.0025669568 1.3301337e-21 0.0019617169 -1.008105e-21 2.6854726e-39)
(0.0032235815 -0.0022576917 7.8322729e-23 0.0019986472 -5.1236456e-23 1.1169483e-39)
(0.0024885168 -0.0019363242 -2.0427799e-23 0.0020275814 2.0462175e-23 7.7710567e-43)
(0.0018696856 -0.0016152832 2.1863773e-22 0.002045655 -2.5961675e-22 1.3677009e-40)
(0.001374826 -0.0013058252 2.5545493e-24 0.0020501608 3.9369935e-24 1.6169735e-40)
(0.00099794768 -0.0010174873 -3.8514892e-22 0.002038788 6.6985092e-22 4.1186219e-40)
(0.00072407232 -0.00075753028 -2.1218947e-22 0.0020105786 4.6396266e-22 2.8818596e-40)
(0.00053407557 -0.00053108438 1.0349917e-22 0.0019687675 -3.3740695e-22 1.8368424e-39)
(0.00038065475 -0.00014978888 2.9527793e-22 6.0000744e-05 -9.4069917e-23 8.0293634e-40)
(0.0020322566 -0.0008481476 1.2293381e-21 0.00035482399 -4.9036587e-22 7.234245e-39)
(0.0038016566 -0.0015607988 9.5944925e-22 0.00064513359 -3.9606882e-22 4.5581179e-40)
(0.0053668937 -0.0021462931 1.0712473e-21 0.00087074068 -4.3848654e-22 2.5438743e-39)
(0.0065195783 -0.0025818052 -1.6436591e-21 0.0010478896 6.8140399e-22 4.006936e-39)
(0.0071932085 -0.0028656221 6.0427795e-23 0.0011852988 -1.954141e-23 3.8142675e-40)
(0.0073974857 -0.0030138165 9.343121e-23 0.0012949823 -4.0980518e-23 3.1935777e-42)
(0.0071891527 -0.0030479802 1.3269643e-21 0.0013882703 -6.2329599e-22 1.4293221e-39)
(0.0066554762 -0.0029886413 1.7861723e-22 0.0014730639 -8.9250707e-23 1.2820216e-41)
(0.0058990955 -0.0028538445 -4.7789497e-22 0.0015537684 2.7464218e-22 7.7448474e-40)
(0.0050238564 -0.0026595113 1.5483489e-21 0.001631827 -9.7650141e-22 5.3930248e-39)
(0.0041227823 -0.0024202662 -1.1280817e-21 0.0017063067 7.5498287e-22 4.5703176e-40)
(0.0032694446 -0.002150179 -2.1135835e-21 0.0017745679 1.6832417e-21 3.2584991e-39)
(0.0025136475 -0.0018630599 -6.963325e-23 0.0018330069 6.5550618e-23 6.9174319e-42)
(0.0018814764 -0.001572199 7.444805e-22 0.0018778164 -8.5692607e-22 2.6663439e-39)
(0.0013788264 -0.0012896967 0 0.0019056995 0 0)
(0.00099697188 -0.0010256559 9.4358156e-23 0.0019143744 -1.3922532e-22 6.9430865e-41)
(0.00071862538 -0.00078755783 -4.5504606e-23 0.0019026579 1.0529169e-22 1.0351447e-40)
(0.00052300798 -0.00058002587 -4.7485585e-23 0.0018717611 1.0712637e-22 2.7016276e-41)
(0.00038951198 -0.00040479815 2.0756094e-23 0.0018298486 -9.8643551e-23 1.8640683e-40)
(0.00044055101 -0.0001381712 6.4550314e-22 4.4080192e-05 -1.6627356e-22 3.2470223e-39)
(0.0022629168 -0.00076063216 6.3072135e-23 0.00025635814 -2.0717127e-23 5.999766e-42)
(0.0041448476 -0.0013822954 -1.805592e-22 0.0004647826 6.1103262e-23 2.6549978e-41)
(0.0057023656 -0.0018812239 1.8178553e-22 0.00063176181 -5.8944453e-23 5.2542263e-40)
(0.0067395201 -0.0022443068 -1.1292006e-21 0.00077080398 3.9791336e-22 9.8455299e-40)
(0.0072211788 -0.0024754805 -5.4093319e-22 0.0008897242 1.9828653e-22 8.8562219e-41)
(0.0071987255 -0.0025915594 3.7841716e-22 0.00099745177 -1.1681835e-22 2.8090876e-39)
(0.0067711541 -0.0026114355 -1.447776e-23 0.0011011604 1.6242406e-23 2.1981128e-40)
(0.0060603596 -0.0025515972 -9.0383736e-22 0.0012046551 4.5548099e-22 2.3211524e-39)
(0.0051908807 -0.002426265 1.5630309e-21 0.0013085479 -8.2459235e-22 6.7100347e-40)
(0.0042738094 -0.0022486904 -3.9434443e-23 0.0014108497 6.0115288e-23 1.2073363e-39)
(0.0033960248 -0.0020322563 -1.2286931e-21 0.0015076841 9.1265498e-22 3.3125559e-39)
(0.0026154115 -0.0017908722 0 0.0015941519 0 0)
(0.0019616858 -0.0015385468 2.9375487e-22 0.0016652703 -3.4555469e-22 1.7835014e-39)
(0.0014413656 -0.0012883847 1.3941246e-23 0.0017168513 -3.2361245e-23 9.7756971e-41)
(0.0010448308 -0.0010514439 -3.5411465e-22 0.0017461811 5.7966583e-22 2.0670039e-39)
(0.0007535168 -0.00083585992 -8.0267972e-23 0.0017523152 1.4932906e-22 4.2724635e-41)
(0.00054585607 -0.00064651433 -2.3753621e-23 0.0017358547 6.9306829e-23 6.9527128e-41)
(0.00040114261 -0.00048535697 -3.1528924e-23 0.0016999407 9.3419094e-23 2.6802045e-41)
(0.00030142979 -0.00035175377 5.5742569e-23 0.0016543361 -2.282999e-22 2.5711856e-40)
(0.00049520473 -0.00011775704 2.4915282e-22 2.8489729e-05 -4.7944008e-23 5.1423748e-40)
(0.002442548 -0.00063114983 -1.7831186e-21 0.00016364462 4.4882365e-22 1.11815e-38)
(0.004378333 -0.0011379633 -1.6071911e-22 0.000299029 4.542487e-23 1.0440434e-39)
(0.0058720473 -0.0015434292 -4.7836371e-22 0.00041556198 1.408007e-22 5.2515782e-39)
(0.006754492 -0.0018415833 -3.5103847e-22 0.0005234087 9.8137053e-23 7.2296095e-41)
(0.007032642 -0.0020374591 -1.988323e-21 0.00062848061 6.2151454e-22 9.5293598e-40)
(0.0068036334 -0.002143192 -9.7246663e-22 0.00073617237 3.4628725e-22 7.7316536e-40)
(0.0062054241 -0.0021705412 1.8737051e-21 0.00084957112 -7.1466109e-22 6.1322554e-40)
(0.0053851243 -0.0021293293 3.1950534e-22 0.00096861317 -1.6742869e-22 7.9535155e-40)
(0.0044762282 -0.0020290997 -4.0995896e-22 0.0010903675 1.8843386e-22 2.7127709e-40)
(0.0035840233 -0.0018807813 1.9265162e-22 0.0012097203 -7.1025465e-23 1.0211751e-39)
(0.0027793148 -0.001697263 -3.5292996e-23 0.0013203246 4.9283173e-23 2.5883555e-40)
(0.0020994815 -0.0014927619 0 0.0014157369 0 0)
(0.0015546788 -0.0012813707 2.0044905e-22 0.0014905256 -2.1325681e-22 6.1392782e-41)
(0.001136427 -0.0010754231 -4.2367434e-22 0.0015411156 5.6874409e-22 8.4467536e-40)
(0.00082609239 -0.00088426266 -1.3720905e-22 0.0015662117 2.1605437e-22 7.2214853e-41)
(0.0006016474 -0.00071371374 2.3474313e-22 0.0015666934 -4.8775021e-22 1.0119661e-39)
(0.00044210524 -0.00056628628 -5.3385036e-23 0.001545018 7.143151e-23 2.1889014e-40)
(0.0003296749 -0.00044202965 -3.5764724e-24 0.0015056676 -6.2979218e-24 2.4572463e-41)
(0.00025017466 -0.0003392444 5.3332125e-23 0.0014579156 -1.6387794e-22 2.1126909e-41)
(0.00054124532 -8.9375317e-05 1.8152028e-22 1.504185e-05 -2.3828407e-23 3.2200171e-40)
(0.0025576978 -0.00046844178 -1.6483638e-21 8.6247512e-05 2.97228e-22 5.1259756e-39)
(0.0044853749 -0.00084711485 -1.2883647e-21 0.00016274608 2.5593056e-22 6.137052e-39)
(0.0058667865 -0.0011616616 1.8284601e-21 0.00023865925 -3.8367735e-22 1.4994609e-39)
(0.0065725897 -0.0014086208 1.3743672e-21 0.00032102781 -3.1130708e-22 3.0918542e-40)
(0.0066577811 -0.0015881436 -1.0005925e-21 0.00041387725 2.2251868e-22 3.2558286e-39)
(0.006262702 -0.0017023998 3.2758937e-22 0.00051970484 -1.2609891e-22 1.3798257e-39)
(0.0055548564 -0.0017528894 1.9063799e-21 0.00063834923 -6.8391769e-22 1.536185e-39)
(0.0046933896 -0.0017418777 8.332756e-22 0.00076653464 -3.3144471e-22 1.9203093e-40)
(0.0038075316 -0.0016748534 -8.158258e-22 0.00089827238 4.2248434e-22 5.0072154e-40)
(0.0029868694 -0.0015615517 -1.1031727e-21 0.0010258239 6.6681746e-22 5.9191107e-40)
(0.0022815237 -0.0014151624 -2.9971317e-23 0.0011410479 2.1993982e-23 6.1658634e-43)
(0.0017091077 -0.0012503048 3.1508172e-22 0.0012368296 -2.8019755e-22 9.574071e-41)
(0.0012647949 -0.0010806877 -1.007329e-23 0.0013082152 3.6831867e-23 1.4916339e-40)
(0.00093130584 -0.00091728213 -1.0176623e-23 0.0013529895 5.9723017e-23 4.037064e-40)
(0.00068680589 -0.00076743936 6.4418909e-24 0.0013716375 -7.7755595e-23 7.2926985e-40)
(0.00051001876 -0.00063493869 1.0843331e-22 0.0013667655 -2.2205799e-22 2.1228032e-40)
(0.0003828314 -0.00052069328 -5.9936972e-23 0.001342206 1.8647514e-22 5.562478e-40)
(0.00029104759 -0.00042387419 -1.5548483e-22 0.0013029673 4.5027229e-22 1.0730716e-39)
(0.00022393699 -0.00034269641 5.2691159e-23 0.0012566857 -1.312503e-22 2.3471032e-41)
(0.0005760419 -5.4661731e-05 -4.6944752e-22 5.3246078e-06 3.9106107e-23 9.6160768e-40)
(0.0026004592 -0.00028458949 -3.6092407e-22 3.1514551e-05 3.8864634e-23 1.0355626e-39)
(0.0044602003 -0.00053307801 2.8193018e-21 6.5994344e-05 -3.5874621e-22 1.267465e-38)
(0.0056931937 -0.00076696055 2.0876653e-21 0.00011076579 -3.036001e-22 1.3783175e-39)
(0.0062193638 -0.00097913703 9.2975677e-22 0.00017112526 -1.46747e-22 6.7823444e-40)
(0.0061409163 -0.0011588481 1.8737242e-22 0.00025045027 -3.8631729e-23 6.4592243e-42)
(0.0056323917 -0.0012945013 -1.7507932e-21 0.00034986999 3.9119896e-22 2.8330811e-39)
(0.0048774179 -0.0013762522 0 0.00046721115 0 0)
(0.0040335289 -0.0013996423 -1.0652883e-21 0.00059675029 4.6679682e-22 2.3480711e-39)
(0.0032153987 -0.0013676396 -1.819485e-22 0.00072997541 1.2199933e-22 5.3331118e-40)
(0.0024920119 -0.001289981 5.1877179e-22 0.00085711895 -3.0422531e-22 1.2685607e-40)
(0.0018933199 -0.0011805308 5.4622852e-23 0.00096901886 -7.2458695e-23 2.9351904e-40)
(0.0014214984 -0.0010539864 -2.4487795e-22 0.001058732 2.4449766e-22 3.3998597e-40)
(0.0010625961 -0.00092312814 -1.829172e-22 0.0011224566 2.4626997e-22 7.2917318e-40)
(0.00079593612 -0.00079727636 1.1933722e-22 0.0011596277 -1.2204026e-22 8.9119069e-41)
(0.00060030443 -0.00068199602 1.6436121e-22 0.0011723374 -2.1433356e-22 8.099732e-41)
(0.00045718984 -0.00057967361 -1.4526128e-22 0.0011643699 2.4512413e-22 7.4584468e-41)
(0.00035192645 -0.00049049986 -1.9241951e-22 0.0011401908 4.2692598e-22 8.9647324e-40)
(0.00027360282 -0.00041356605 1.5753843e-23 0.0011045821 -2.9680292e-24 1.0621646e-40)
(0.00021425037 -0.00034746623 2.5465352e-23 0.0010631085 -9.0500802e-23 1.249671e-40)
(0.00059760904 -1.5795799e-05 -3.0998192e-22 4.7931787e-07 7.9039579e-24 4.7055049e-40)
(0.0025684943 -9.3492745e-05 1.3180566e-21 3.7127698e-06 -4.7372917e-23 2.6076037e-39)
(0.0043077817 -0.00022046291 2.0155173e-21 1.3141487e-05 -1.2458776e-22 1.8933009e-38)
(0.005372076 -0.00038922896 -2.3446125e-21 3.455403e-05 2.0414609e-22 5.2047007e-39)
(0.0057332815 -0.00058235559 8.4231755e-22 7.410658e-05 -9.3526739e-23 1.2952966e-40)
(0.0055329605 -0.00077361567 3.4063074e-22 0.00013672241 2.7717272e-24 4.8143002e-39)
(0.0049664234 -0.0009362431 9.0340999e-23 0.00022405719 -1.8553595e-23 1.7001409e-42)
(0.0042191787 -0.0010500983 -1.280705e-21 0.0003331167 2.9880881e-22 1.614423e-39)
(0.0034360591 -0.0011060467 -2.8989773e-23 0.00045637789 1.0161996e-23 2.5366691e-43)
(0.0027115189 -0.0011062793 4.7434378e-22 0.00058333509 -2.5126491e-22 6.1647017e-40)
(0.0020938298 -0.0010613071 3.6795437e-23 0.00070286598 -3.8876532e-23 8.8513768e-41)
(0.0015966324 -0.00098553429 -1.7167419e-22 0.00080556313 4.5071853e-23 1.1450912e-39)
(0.0012121713 -0.00089321529 -3.7760405e-22 0.00088529813 3.1159094e-22 1.2376477e-40)
(0.00092250095 -0.00079583661 -1.4800601e-24 0.00093969921 3.0339727e-23 1.4919958e-40)
(0.00070717689 -0.00070114131 1.2652651e-22 0.00096967114 -1.6979797e-22 1.4460578e-40)
(0.00054752135 -0.00061339378 8.3764878e-23 0.00097836151 -1.3650457e-22 1.4062993e-40)
(0.0004283531 -0.0005342689 1.8272203e-23 0.00097000987 -6.4922006e-23 2.2888088e-40)
(0.00033821869 -0.00046387195 -1.3484988e-22 0.00094901711 1.9133997e-22 1.8168168e-40)
(0.00026890414 -0.00040161534 -2.9133999e-23 0.00091943981 -1.9372362e-23 7.8543193e-40)
(0.00021453133 -0.00034652625 7.1305461e-23 0.00088482422 -2.3293484e-22 1.2933885e-39)
(4.0256228e-06 -5.0243256e-07 4.0250667e-23 6.1412178e-07 -8.057991e-24 4.5990681e-40)
(1.8980311e-05 -7.9445264e-06 -5.7424374e-23 4.081014e-06 1.5911583e-23 4.4279471e-40)
(4.2514721e-05 -1.8361068e-05 1.2756713e-22 8.1344733e-06 -4.7762022e-23 2.542682e-39)
(0.00013629837 -3.8738284e-05 3.5594631e-22 1.1660193e-05 -7.5845534e-23 8.5521482e-39)
(0.00029905779 -6.3877001e-05 -2.5415821e-22 1.482094e-05 4.3226376e-23 2.2238311e-39)
(0.00053430754 -9.1981099e-05 3.2022273e-22 1.761827e-05 -4.3381094e-23 2.4572711e-39)
(0.00084959259 -0.0001220722 -4.3919232e-22 2.0056131e-05 5.5604042e-23 2.6978655e-39)
(0.001246786 -0.00015317501 -4.5278577e-22 2.218639e-05 4.7176877e-23 2.853144e-39)
(0.0017238108 -0.00018449826 5.6873956e-22 2.4065066e-05 -5.8740303e-23 3.015344e-39)
(0.0022772757 -0.00021545825 -4.4089106e-22 2.5736092e-05 4.2878713e-23 1.5355701e-39)
(0.0029029836 -0.00024561548 -2.216214e-23 2.7233026e-05 3.68094e-25 1.7872522e-41)
(0.0035960007 -0.00027462982 1.263134e-22 2.8581694e-05 -1.3402339e-23 5.6372437e-41)
(0.004350883 -0.00030223383 -2.184624e-23 2.9801972e-05 1.0388329e-24 8.9694104e-42)
(0.0051618875 -0.00032821612 6.8460438e-22 3.090986e-05 -6.1142813e-23 2.6876027e-39)
(0.0060230986 -0.00035241606 1.0631154e-24 3.1920065e-05 1.2996596e-24 5.8140431e-42)
(0.0069285572 -0.00037473331 -9.9990014e-22 3.2848644e-05 9.342822e-23 5.5249954e-39)
(0.007872432 -0.00039513637 1.8443094e-22 3.3712713e-05 -1.9462154e-23 1.1645045e-40)
(0.0088490459 -0.00041362474 4.4569679e-22 3.4525101e-05 -4.4341124e-23 1.4049237e-39)
(0.0098527476 -0.00043028477 -7.1858313e-22 3.5298515e-05 7.6982049e-23 3.9812814e-39)
(0.010877188 -0.00044572069 -3.9403519e-22 3.6028571e-05 4.5317988e-23 1.494958e-39)
(4.5595324e-06 -2.1029353e-06 1.3247563e-23 5.404979e-06 -4.8864206e-24 4.5447814e-41)
(2.4196804e-05 -2.7223119e-05 -3.6364298e-22 3.5962449e-05 2.7418085e-22 1.4808261e-38)
(5.429802e-05 -6.1802496e-05 7.217545e-23 7.1656334e-05 -5.971561e-23 1.3365469e-39)
(0.00016033107 -0.00012537993 3.8273209e-22 0.00010271455 -2.3487077e-22 7.1462852e-39)
(0.00033722476 -0.00020266874 5.3149794e-22 0.0001304979 -2.5506893e-22 8.08103e-39)
(0.00058730909 -0.00028838854 6.4227692e-23 0.00015498254 -2.5704926e-23 7.5907353e-41)
(0.00091717976 -0.0003796183 -1.7063947e-21 0.00017621024 5.8958707e-22 4.0413064e-38)
(0.0013275798 -0.00047347583 -5.9928223e-23 0.00019464153 2.476385e-23 1.1620245e-41)
(0.0018154204 -0.00056763968 9.6291481e-22 0.00021076917 -2.9196706e-22 6.8934171e-39)
(0.0023763887 -0.00066039811 -2.3215919e-22 0.00022498027 6.3792972e-23 3.8334023e-40)
(0.0030053799 -0.00075045935 -8.7958439e-22 0.00023757065 2.3984731e-22 4.2506478e-39)
(0.0036965492 -0.00083682065 1.8481025e-22 0.00024876658 -4.6994082e-23 1.9356037e-40)
(0.0044435295 -0.00091868947 7.7931761e-22 0.0002587397 -1.7308196e-22 4.5616567e-39)
(0.0052396224 -0.00099543289 3.2102818e-22 0.00026762478 -7.9462515e-23 5.2061459e-40)
(0.0060778943 -0.0010665587 6.3995647e-22 0.00027554182 -1.7007291e-22 1.5042232e-39)
(0.0069513042 -0.0011317406 -5.045319e-22 0.00028261843 1.2678009e-22 1.2734427e-39)
(0.0078530218 -0.0011908529 -4.805346e-22 0.00028899248 1.1970298e-22 1.3931503e-39)
(0.008776317 -0.0012438517 4.8290119e-22 0.00029477573 -1.3774815e-22 8.0369724e-40)
(0.0097126252 -0.0012909759 4.3804204e-22 0.00030009475 -1.2221072e-22 1.4075564e-39)
(0.010651697 -0.0013345044 1.6785218e-22 0.00030495669 -4.5125233e-23 5.985273e-40)
(5.8614021e-06 -5.385992e-06 1.0193414e-23 1.4418142e-05 -5.0891485e-24 2.3914335e-41)
(3.6572654e-05 -5.6257037e-05 2.7614925e-22 9.5997378e-05 -2.955897e-22 6.3109164e-39)
(8.1710984e-05 -0.00012427786 -6.0406915e-23 0.00019110819 7.7837181e-23 3.3047459e-40)
(0.00021334029 -0.00023788491 -4.1567142e-22 0.00027381228 3.4982934e-22 7.8245454e-39)
(0.00041939353 -0.00037253311 1.5269181e-22 0.00034753066 -1.2810511e-22 2.2111805e-40)
(0.00069981834 -0.00051968782 2.0178219e-22 0.0004120456 -1.6391195e-22 1.1548089e-40)
(0.0010593047 -0.00067452846 -2.5191068e-22 0.00046746093 1.3329398e-22 6.9688783e-40)
(0.0014964656 -0.00083239645 -6.5625115e-22 0.00051500485 3.8225276e-22 1.3884668e-39)
(0.0020062877 -0.0009895736 2.8715161e-22 0.00055598837 -1.392062e-22 3.8888807e-40)
(0.0025826825 -0.0011433109 6.0945284e-22 0.00059144925 -2.525316e-22 2.2098507e-39)
(0.0032188016 -0.0012915195 1.6798128e-22 0.00062218503 -1.1682425e-22 8.2584264e-41)
(0.0039070577 -0.0014325632 7.4343599e-22 0.00064880387 -2.4553162e-22 4.1021007e-39)
(0.0046393233 -0.0015651306 6.2807452e-23 0.00067176032 -2.3184267e-23 1.6995876e-41)
(0.0054070902 -0.0016881491 -1.098333e-21 0.00069139852 3.6915148e-22 6.5927771e-39)
(0.0062015231 -0.0018007497 7.9709236e-23 0.00070801089 -5.3174756e-23 3.6514413e-41)
(0.0070135922 -0.0019023096 -5.1107882e-22 0.00072190016 1.4110204e-22 2.5700795e-39)
(0.0078346759 -0.0019925316 -7.1577729e-22 0.00073339455 2.8397895e-22 1.0529772e-39)
(0.0086562772 -0.0020712551 1.1577245e-21 0.0007428192 -4.5250309e-22 3.4972501e-39)
(0.0094650435 -0.0021388209 6.081418e-22 0.00075070301 -2.5339943e-22 7.1043474e-40)
(0.010244887 -0.002200054 1.2172762e-22 0.00075741184 -5.5950941e-23 1.5219419e-41)
(8.6355185e-06 -1.1142679e-05 -1.52725e-23 2.6555572e-05 1.9241456e-23 3.4966037e-41)
(5.9946107e-05 -9.9877851e-05 -6.39585e-22 0.00017708551 8.0893707e-22 2.0936695e-38)
(0.00013254677 -0.00021521827 -4.6528555e-23 0.0003521832 5.9791767e-23 2.862019e-40)
(0.00030641845 -0.00038877419 1.069628e-22 0.00050416288 -1.1841529e-22 1.822632e-40)
(0.00055975531 -0.00058801021 -1.7394071e-23 0.00063893979 4.5533185e-24 4.7118887e-41)
(0.00088898639 -0.00080133554 5.4449282e-22 0.00075574768 -3.9882311e-22 3.4379393e-39)
(0.0012958841 -0.0010220336 6.0140302e-22 0.00085472382 -3.9229195e-22 3.1228833e-39)
(0.0017759228 -0.0012438511 -1.8237048e-22 0.00093813628 8.7964222e-23 4.9232237e-40)
(0.0023212348 -0.0014618574 -6.6680385e-22 0.0010084187 3.4746654e-22 3.1291172e-39)
(0.0029230682 -0.001672386 -1.340556e-21 0.0010675254 7.2157293e-22 6.6298793e-39)
(0.0035719655 -0.0018726204 -3.0007371e-23 0.0011169799 -1.5623513e-23 1.5155613e-40)
(0.0042577623 -0.0020603284 1.7005526e-21 0.0011579535 -7.9004804e-22 1.083645e-38)
(0.0049697573 -0.0022336855 -6.8890553e-22 0.0011913204 2.6144197e-22 3.2057122e-39)
(0.0056968759 -0.002391171 -4.4325282e-22 0.0012177357 1.9367184e-22 6.3200674e-40)
(0.006427695 -0.0025315097 -5.2375927e-23 0.001237733 6.0048566e-23 1.3659195e-40)
(0.0071506012 -0.0026537239 1.0437228e-21 0.0012518307 -4.5757986e-22 2.5904761e-39)
(0.0078547383 -0.0027572882 -5.8875354e-22 0.0012605758 2.9636488e-22 1.72125e-40)
(0.0085297571 -0.0028419752 -1.347257e-21 0.0012646492 5.6844672e-22 5.5785552e-39)
(0.0091571196 -0.0029082945 8.9875331e-22 0.001265671 -3.932372e-22 2.8045542e-39)
(0.0097145601 -0.0029640215 7.7531768e-22 0.001265544 -3.1211581e-22 2.6103848e-39)
(1.3810849e-05 -1.9847246e-05 6.8539808e-23 4.0484814e-05 -6.661522e-23 4.509729e-40)
(9.9429468e-05 -0.00016089541 2.2329208e-23 0.00027023657 -5.867587e-24 2.0336312e-40)
(0.00021708497 -0.00034001447 -8.7985472e-22 0.00053645128 1.2604239e-21 1.7166728e-38)
(0.00045385459 -0.00058484548 -5.0540302e-22 0.00076671099 5.3689018e-22 5.3129667e-39)
(0.00077582066 -0.00085623036 3.3769004e-22 0.00096944487 -2.688251e-22 3.2120325e-39)
(0.0011746483 -0.0011395386 4.1852209e-22 0.0011429174 -3.3717397e-22 1.5123814e-39)
(0.0016479752 -0.0014260972 -5.4476615e-22 0.0012872868 3.5543107e-22 3.5399824e-39)
(0.0021870003 -0.001708277 -8.3010413e-22 0.0014060736 4.7559993e-22 7.7682066e-39)
(0.0027799537 -0.0019801756 1.2249643e-21 0.001503084 -7.3073875e-22 7.967462e-39)
(0.0034144296 -0.0022373925 3.520444e-22 0.0015814389 -1.4182456e-22 1.8556315e-39)
(0.0040774275 -0.002476526 -1.0990207e-21 0.0016436304 7.2865437e-22 6.0927321e-40)
(0.0047553671 -0.0026948709 4.8318458e-22 0.0016916198 -2.1882985e-22 1.4282615e-39)
(0.0054343089 -0.0028902218 0 0.0017269097 0 0)
(0.0061001404 -0.0030607408 4.6807606e-22 0.0017506416 -2.2791802e-22 5.5847571e-40)
(0.0067386547 -0.0032048885 -3.504156e-22 0.0017637275 1.6647834e-22 2.9819439e-40)
(0.0073357944 -0.0033214747 -5.3526014e-22 0.0017669914 2.6780475e-22 3.6150701e-40)
(0.0078790428 -0.0034098928 1.9603367e-22 0.001761211 -1.6284956e-22 5.0982732e-40)
(0.0083575053 -0.003470136 -1.5966628e-22 0.0017474461 9.6437021e-23 1.8324492e-41)
(0.0087493149 -0.0035032899 7.6157277e-22 0.0017292086 -3.3025071e-22 3.0228567e-39)
(0.0090261515 -0.0035197454 -6.2037237e-22 0.001712271 3.0601468e-22 1.7487593e-40)
(2.2461141e-05 -3.1646268e-05 6.5752831e-23 5.4880446e-05 -5.5284637e-23 3.6207109e-40)
(0.00016078024 -0.00023980393 3.1617472e-22 0.00036599387 -4.2115007e-22 1.3491846e-39)
(0.00034664321 -0.00049917356 -4.2424618e-22 0.00072418223 5.6324042e-22 3.2227389e-39)
(0.00067064128 -0.00082569432 -6.948452e-22 0.0010322014 7.8251769e-22 2.6946631e-39)
(0.0010845266 -0.001174839 -2.0151964e-22 0.0013007438 2.9818864e-22 2.1283191e-39)
(0.0015736159 -0.0015287665 -6.2718513e-22 0.0015268491 5.5142606e-22 1.3246802e-39)
(0.0021298787 -0.0018767876 -2.93051e-22 0.0017108327 1.803212e-22 1.5327742e-39)
(0.002738944 -0.0022102025 5.0638867e-22 0.0018576841 -3.0430205e-22 2.8270518e-39)
(0.0033840055 -0.0025225011 1.2075187e-21 0.0019728221 -7.1911806e-22 9.6778698e-39)
(0.0040480032 -0.002808898 3.7074229e-22 0.0020608084 -2.2824183e-22 4.0563729e-40)
(0.0047136523 -0.003065774 -3.5213205e-22 0.0021253925 1.8673632e-22 6.4378547e-40)
(0.0053635136 -0.0032903369 -6.6926923e-23 0.002169617 -1.4337827e-23 5.6095414e-40)
(0.0059803469 -0.0034804174 -1.6680268e-21 0.0021958969 9.1340853e-22 5.3330126e-39)
(0.006547459 -0.0036343339 -5.1684318e-22 0.0022061299 2.7048889e-22 5.516661e-40)
(0.0070489457 -0.0037508164 8.6234192e-22 0.0022018417 -5.0072461e-22 2.5979446e-40)
(0.007470084 -0.0038290287 -8.5821515e-22 0.0021843302 4.654078e-22 5.4400605e-40)
(0.0077991275 -0.0038688001 -3.0218312e-22 0.0021546222 1.4907917e-22 1.7443122e-40)
(0.008028064 -0.0038708675 6.7533404e-22 0.0021139138 -2.8431069e-22 2.7145662e-39)
(0.0081366741 -0.0038375895 1.018667e-21 0.0020678125 -5.1166216e-22 2.0548629e-39)
(0.008091876 -0.0037810564 1.2435026e-22 0.0020287789 -5.8281918e-23 4.0046355e-41)
(3.5725319e-05 -4.6369025e-05 -1.8547432e-22 6.853542e-05 1.5061114e-22 2.1423744e-39)
(0.00024970748 -0.00033473394 -2.0560499e-22 0.00045539762 2.0860131e-22 1.7075815e-39)
(0.00053184875 -0.00068801169 5.1585715e-22 0.00089659076 -6.5296499e-22 7.7469791e-40)
(0.00096959084 -0.0011030844 7.8874947e-22 0.0012727696 -8.1764662e-22 3.578467e-39)
(0.0014980761 -0.0015311618 1.0304943e-23 0.0015965355 -9.2840267e-24 7.1082517e-43)
(0.0020942356 -0.0019509978 -2.1391119e-21 0.0018638156 1.7661294e-21 2.0906728e-38)
(0.0027425863 -0.0023499939 -8.3404243e-22 0.0020754687 7.1537837e-22 2.961583e-40)
(0.0034218886 -0.0027188923 6.5050317e-22 0.0022382464 -4.3885068e-22 2.2947328e-39)
(0.0041094177 -0.0030512087 7.4380793e-22 0.0023594371 -4.9992366e-22 1.4026849e-39)
(0.0047829955 -0.0033424475 -7.2979489e-22 0.0024453217 4.0615525e-22 3.8527457e-39)
(0.0054210559 -0.0035894811 -2.1339811e-21 0.0025012017 1.3487713e-21 5.6061075e-39)
(0.0060029522 -0.0037902002 1.401191e-21 0.0025314946 -8.5054184e-22 2.3044497e-39)
(0.0065095576 -0.0039433061 8.3387589e-22 0.0025398162 -4.349598e-22 2.7649034e-39)
(0.006923879 -0.0040481787 -1.1523517e-21 0.0025290942 6.3692593e-22 2.2795093e-39)
(0.0072315463 -0.0041047876 5.049445e-22 0.002501709 -2.9240613e-22 1.5237148e-40)
(0.0074213342 -0.0041136481 8.3679805e-22 0.0024596038 -4.3173262e-22 1.6981958e-39)
(0.0074870633 -0.0040759087 3.1793706e-22 0.0024040658 -1.7998779e-22 5.7586821e-41)
(0.0074289909 -0.0039936685 -5.4374028e-22 0.0023359593 3.3827543e-22 7.2354836e-41)
(0.0072360128 -0.0038710334 -1.249086e-22 0.00226208 3.9913367e-23 4.2100462e-40)
(0.0068744781 -0.0037202566 7.1133449e-22 0.0022032883 -4.134473e-22 1.6922921e-40)
(5.4720218e-05 -6.3533215e-05 -5.5936234e-24 8.0380282e-05 -5.7509195e-24 3.9713293e-41)
(0.00037111159 -0.00044152433 -7.4548761e-22 0.00053051338 7.8879619e-22 5.6099015e-39)
(0.00078077398 -0.0008968529 -5.9564652e-22 0.0010373797 6.3922318e-22 8.4910576e-39)
(0.0013583667 -0.0014013397 1.1139319e-21 0.0014646776 -1.0684829e-21 4.9596975e-39)
(0.0020200213 -0.0019030011 9.260038e-22 0.0018265673 -9.1012871e-22 2.1046596e-39)