/*--------------------------------*- C++ -*----------------------------------*\
  =========                 |
  \\      /  F ield         | OpenFOAM: The Open Source CFD Toolbox
   \\    /   O peration     | Website:  https://openfoam.org
    \\  /    A nd           | Version:  6
     \\/     M anipulation  |
\*---------------------------------------------------------------------------*/
FoamFile
{
    version     2.0;
    format      ascii;
    class       volVectorField;
    location    "144";
    object      U_0;
}
// * * * * * * * * * * * * * * * * * * * * * * * * * * * * * * * * * * * * * //

dimensions      [0 1 -1 0 0 0 0];

internalField   nonuniform List<vector> 
9200
(
(0.0010393709 0.0014199691 -5.9202028e-20)
(0.013676175 -0.0020584237 4.6042707e-20)
(0.0383134 -0.0058666678 -3.8501867e-20)
(0.072274831 -0.0097636483 -6.0257953e-20)
(0.11376532 -0.013490216 1.8827035e-20)
(0.16158168 -0.01660589 3.2743994e-20)
(0.21467251 -0.018817563 -1.2268058e-20)
(0.27206735 -0.019974214 9.2689002e-21)
(0.33285775 -0.020011592 1.6803478e-20)
(0.39616526 -0.018929467 1.4848125e-21)
(0.46111759 -0.01678028 -2.145642e-20)
(0.52683915 -0.013658246 2.0670088e-20)
(0.59245318 -0.0096885653 -4.0422301e-20)
(0.65709401 -0.0050164001 -2.1133997e-20)
(0.71992758 0.00020487693 5.9046777e-21)
(0.78017802 0.0058233447 -2.5131804e-20)
(0.83717369 0.011711991 2.5217259e-20)
(0.8904719 0.017917613 2.2243385e-20)
(0.93967385 0.024572429 -2.9925974e-22)
(0.98205498 0.02829232 -1.6691403e-21)
(0.0052522223 -0.0013462956 -1.7059408e-20)
(0.02696266 -0.0089891067 3.9747851e-20)
(0.061670436 -0.014809895 2.3576378e-20)
(0.10629541 -0.019172446 -1.1569794e-19)
(0.15873639 -0.022214217 -1.2727134e-20)
(0.2175345 -0.023720948 7.3297298e-20)
(0.28137419 -0.023595399 -3.5476516e-20)
(0.34900751 -0.021869309 -8.3905835e-21)
(0.41924097 -0.018645908 3.4287659e-20)
(0.49091146 -0.014081266 -4.3259741e-20)
(0.56287458 -0.0083764203 -3.0338609e-20)
(0.63401095 -0.0017671114 7.192177e-20)
(0.70324596 0.0054878254 3.8294225e-20)
(0.76957862 0.013118006 -6.7976914e-20)
(0.83211537 0.020851392 1.462378e-20)
(0.89010334 0.028418944 -3.673362e-20)
(0.94297216 0.035568835 -1.3777258e-20)
(0.99043526 0.042139965 7.0975296e-20)
(1.0323589 0.047714301 2.9642297e-20)
(1.0669376 0.049138604 -8.347867e-20)
(0.010858489 -0.0040424466 3.6773567e-20)
(0.043953633 -0.015431176 2.5047447e-21)
(0.090515854 -0.022552436 2.2341796e-20)
(0.14711204 -0.026497558 9.8117112e-22)
(0.21134345 -0.027886538 -4.0774092e-20)
(0.28146884 -0.026795393 1.857645e-20)
(0.35587185 -0.023383042 1.342035e-20)
(0.43299179 -0.017921885 -5.0327875e-20)
(0.51132675 -0.010736033 5.7262067e-20)
(0.58942835 -0.0021843011 1.4256755e-20)
(0.66591159 0.0073474425 -5.430096e-20)
(0.73948296 0.017459752 -1.8237508e-20)
(0.80897871 0.027755996 9.0591478e-21)
(0.87340546 0.037858643 2.3444875e-20)
(0.93197648 0.047423344 -1.1362588e-20)
(0.98413652 0.056148195 2.78779e-20)
(1.0295768 0.063788312 -2.0188354e-20)
(1.0682672 0.070203442 -7.0124084e-20)
(1.1003347 0.075118337 -2.3796468e-20)
(1.1249137 0.076640115 4.8660062e-20)
(0.017957301 -0.0064222004 2.4508084e-20)
(0.064777283 -0.020694912 5.1039375e-20)
(0.12485281 -0.028061014 1.988175e-20)
(0.19447045 -0.030464275 1.2990117e-20)
(0.27095039 -0.029095086 1.7275743e-20)
(0.35225015 -0.024389253 -4.7720314e-20)
(0.43643303 -0.016826275 -2.564694e-20)
(0.52162199 -0.0069770008 0)
(0.60603111 0.0045666706 1.3920702e-20)
(0.68798943 0.017211334 -5.8523967e-21)
(0.76597771 0.030373481 -9.7935396e-20)
(0.83867712 0.04349914 -1.5774868e-20)
(0.90501798 0.056086064 6.5103584e-20)
(0.96421844 0.067703513 4.8438233e-22)
(1.0158062 0.078007015 -1.5725663e-21)
(1.0596182 0.086746009 2.1957634e-20)
(1.0957798 0.093771355 -5.264765e-21)
(1.1246824 0.099064369 -6.1030127e-20)
(1.146867 0.10259602 -4.585156e-20)
(1.1622978 0.10341271 6.9520875e-20)
(0.026579534 -0.0082057287 -3.9194289e-21)
(0.089344383 -0.024033623 -5.1256504e-21)
(0.16430818 -0.030265155 5.659956e-20)
(0.24758213 -0.029810221 1.8539366e-20)
(0.33624285 -0.024513256 -3.1955151e-20)
(0.42795279 -0.01524011 1.2163877e-20)
(0.52047444 -0.0028516333 2.6402954e-21)
(0.61166565 0.011736802 3.360931e-20)
(0.6995494 0.027639819 5.6599752e-21)
(0.78237083 0.044028409 -1.3204824e-20)
(0.85865663 0.060147317 6.0154399e-20)
(0.92727174 0.075340006 -5.800963e-20)
(0.9874594 0.089072328 -1.3216687e-19)
(1.0388557 0.10094841 -5.5773363e-21)
(1.081475 0.11071639 8.315129e-20)
(1.115668 0.11826326 0)
(1.1420571 0.12360495 1.0119014e-20)
(1.161469 0.12688959 -1.5459869e-20)
(1.1748199 0.12829765 -8.5995173e-21)
(1.1826692 0.12744802 2.0992344e-20)
(0.036667053 -0.0090896205 -5.4309182e-21)
(0.11731555 -0.024685469 4.3578852e-21)
(0.20811944 -0.028140331 -8.7630051e-21)
(0.3051581 -0.023415132 2.847247e-20)
(0.40533679 -0.013075785 -2.939275e-20)
(0.50607317 0.0015224091 -1.6927079e-20)
(0.60490686 0.019094919 3.7364336e-20)
(0.69955178 0.038365013 4.7595523e-21)
(0.78800628 0.058167374 -2.4436208e-20)
(0.86863653 0.077482691 6.9867893e-20)
(0.94024227 0.095458274 5.2390016e-22)
(1.0020981 0.11143113 -8.0444787e-20)
(1.0539594 0.12494239 0)
(1.0960297 0.1357369 3.9542369e-20)
(1.1288945 0.14374774 5.5236379e-21)
(1.15343 0.14906815 -7.7566861e-20)
(1.1707011 0.15191827 -1.9587037e-20)
(1.1818643 0.15262272 -1.2467706e-20)
(1.188061 0.15152502 -1.4709477e-20)
(1.1901477 0.14858382 4.0420753e-20)
(0.048059043 -0.0087674422 -1.727799e-20)
(0.14808362 -0.02193209 -2.2198496e-21)
(0.25514157 -0.020797959 3.0380568e-20)
(0.36546505 -0.010412929 3.7484388e-20)
(0.47590574 0.0059014474 -1.9944788e-20)
(0.58374448 0.026269161 -6.9163272e-20)
(0.68644391 0.048977052 -2.7995922e-20)
(0.78176428 0.072417609 7.892954e-20)
(0.86790434 0.095212263 8.5778824e-21)
(0.94359161 0.11624935 -2.4873583e-20)
(1.0081283 0.13469794 1.3642246e-20)
(1.0613894 0.15001515 -4.3194861e-21)
(1.1037716 0.1619361 0)
(1.1360997 0.17044369 2.7203631e-20)
(1.1595067 0.17572241 -7.9322851e-20)
(1.175304 0.17810293 -3.1475702e-20)
(1.1848588 0.17800728 8.1055026e-20)
(1.1894938 0.17590852 -4.2970184e-21)
(1.1904045 0.17225458 3.5561237e-21)
(1.1885095 0.16719191 2.7111735e-20)
(0.060485456 -0.0069573931 -3.2414669e-20)
(0.18077832 -0.015170452 -8.1624507e-20)
(0.30389026 -0.0075836091 2.5797497e-21)
(0.42642688 0.0097032773 7.0162005e-20)
(0.54535313 0.03263148 6.2424564e-20)
(0.65798291 0.058819969 -7.1574725e-20)
(0.76191095 0.086176422 -2.8271605e-22)
(0.85518518 0.1128522 8.5522947e-20)
(0.93645581 0.13737822 4.8828287e-20)
(1.0050439 0.15869348 -5.4218683e-20)
(1.0609379 0.17613534 -9.233468e-20)
(1.1047265 0.18941316 -3.1589988e-21)
(1.1374781 0.19855897 4.2128083e-20)
(1.1605894 0.203858 -6.6056634e-21)
(1.1756267 0.20576954 -1.2868851e-20)
(1.1841795 0.20484845 1.9690901e-20)
(1.1877444 0.20167815 4.3880847e-20)
(1.1876469 0.19682499 -4.3859654e-20)
(1.1849969 0.19077789 -1.0232257e-19)
(1.1806264 0.18377279 2.4567034e-20)
(0.07353745 -0.0034329903 -3.4979837e-20)
(0.21422753 -0.0039890613 -1.7388641e-19)
(0.35251763 0.011839349 8.2103492e-20)
(0.48562939 0.037018328 9.2767784e-20)
(0.61085551 0.066835557 5.7970735e-20)
(0.72576922 0.098481184 8.6107422e-21)
(0.82835016 0.12959695 -1.0624049e-19)
(0.91719222 0.15824264 0)
(0.99162972 0.18302804 -6.8748938e-20)
(1.0517543 0.20311189 -1.5202494e-20)
(1.0983406 0.21814835 5.4703729e-20)
(1.1327029 0.22821048 1.0973436e-20)
(1.156513 0.23369216 -4.5614075e-20)
(1.1716086 0.23519893 -4.9081596e-20)
(1.1798221 0.23344273 2.4287806e-20)
(1.1828467 0.22915253 4.4823124e-20)
(1.1821504 0.22300909 -5.5600694e-20)
(1.1789375 0.21560739 -1.0751176e-19)
(1.1741482 0.20742136 -3.1513614e-21)
(1.1684581 0.19871787 2.7046536e-20)
(0.086650706 0.0019613856 -3.5449287e-21)
(0.2469609 0.011816643 8.7913447e-20)
(0.39884852 0.037492349 -1.6479149e-20)
(0.54040612 0.071218452 -8.4309454e-20)
(0.66950078 0.10778902 4.5164525e-20)
(0.7842215 0.14411552 4.9175578e-20)
(0.88319151 0.17775675 5.5357012e-21)
(0.96578088 0.20688492 -9.9502898e-20)
(1.0321785 0.23038798 -2.5048892e-21)
(1.083335 0.24781541 5.0503781e-20)
(1.1208091 0.25926279 5.9855044e-21)
(1.1465577 0.26523588 -1.9717302e-20)
(1.1627126 0.26650492 -7.5704979e-20)
(1.1713782 0.26396572 -6.2554241e-21)
(1.1744779 0.25852372 4.3533551e-20)
(1.1736563 0.25101024 3.7022179e-20)
(1.1702397 0.24213324 1.9793518e-20)
(1.1652416 0.23245798 -5.2995136e-20)
(1.1594027 0.22240337 1.295746e-20)
(1.1532264 0.21223714 8.2659475e-20)
(-0.0012932666 0.0014346664 -1.1234269e-21)
(-0.0047459783 0.0031874278 2.0647032e-21)
(-0.010771398 0.0041359198 8.7957973e-22)
(-0.017754349 0.0045395522 -2.4411314e-21)
(-0.0247404 0.0045654317 -1.4114952e-21)
(-0.031299693 0.0043260516 1.5459716e-21)
(-0.037161441 0.0039035483 -6.8701373e-21)
(-0.042147565 0.0033577285 -5.9572989e-21)
(-0.046157903 0.0027313843 1.1172064e-20)
(-0.049146315 0.0020548296 -9.7428085e-21)
(-0.051100771 0.0013492952 -1.9832191e-22)
(-0.052030548 0.00062941232 3.667377e-21)
(-0.051957822 -9.4903749e-05 -6.329564e-22)
(-0.050911941 -0.00081694958 2.2818901e-20)
(-0.048925806 -0.0015318691 3.0400842e-22)
(-0.046035331 -0.0022352039 -4.0883174e-20)
(-0.042281741 -0.0029223037 7.5386252e-21)
(-0.037703334 -0.0035910803 2.3864294e-20)
(-0.032308525 -0.0042400348 -4.3852726e-20)
(-0.026156727 -0.0048211679 -2.7739433e-20)
(-0.0016522061 0.0041808829 -5.371642e-21)
(-0.0053975003 0.009268172 1.0865475e-20)
(-0.011218547 0.012007485 -1.0191626e-20)
(-0.017658082 0.013153806 3.9230254e-21)
(-0.023856506 0.013195452 4.8121888e-21)
(-0.029433403 0.012462757 7.1324698e-22)
(-0.034152412 0.011197038 -2.2509631e-20)
(-0.037860471 0.0095739118 -2.0370416e-21)
(-0.040474386 0.0077189914 2.0163675e-20)
(-0.041958998 0.005721223 -5.0473922e-21)
(-0.042309008 0.0036428447 -2.1762735e-20)
(-0.04153737 0.0015266799 4.897349e-21)
(-0.039667714 -0.0005983521 2.263556e-20)
(-0.036729043 -0.0027128222 1.0308461e-20)
(-0.032751949 -0.0048027659 2.1854446e-20)
(-0.027769031 -0.0068556016 -1.9770871e-20)
(-0.021824592 -0.0088583301 -2.1673101e-20)
(-0.014965996 -0.010804354 2.1184789e-20)
(-0.0071286613 -0.012679149 2.6810572e-20)
(0.0018747448 -0.014317391 1.585488e-20)
(-0.0023034372 0.0065602572 -4.3568931e-21)
(-0.0065392449 0.014480246 -5.6387721e-21)
(-0.011892167 0.018710604 3.0723875e-22)
(-0.017211146 0.020428242 1.0959846e-21)
(-0.021819195 0.020400379 6.6918845e-21)
(-0.025431095 0.019151711 1.0665239e-20)
(-0.027877279 0.017066319 -3.7227885e-21)
(-0.029053303 0.014423798 -1.889629e-20)
(-0.028909048 0.011424349 6.5413598e-21)
(-0.027431032 0.0082098831 1.2862651e-20)
(-0.024627658 0.0048797336 5.8341308e-21)
(-0.020520006 0.0015021744 1.8159214e-20)
(-0.015135828 -0.0018769506 1.7296027e-21)
(-0.0085051758 -0.0052273594 -3.3864744e-20)
(-0.00065659494 -0.0085277475 1.2020345e-21)
(0.0083814 -0.011759274 -2.2139344e-20)
(0.018557346 -0.01490429 -2.4466489e-20)
(0.029802766 -0.017953977 4.5820058e-20)
(0.042305667 -0.020855373 2.5349553e-20)
(0.056739411 -0.023248054 1.2240992e-22)
(-0.0031290377 0.0083689993 -5.2833333e-21)
(-0.0078964212 0.018336572 -8.4815845e-21)
(-0.012439016 0.02358788 4.3593234e-21)
(-0.016026565 0.025609729 4.1463664e-21)
(-0.018235047 0.025382806 2.0105795e-21)
(-0.018912658 0.023589367 7.3210429e-21)
(-0.017984699 0.020730299 9.3125359e-21)
(-0.015416658 0.017170382 -1.3511454e-21)
(-0.011206951 0.013171293 -1.1482016e-20)
(-0.0053750825 0.0089188836 -2.9072051e-20)
(0.0020483273 0.0045433605 6.1895247e-23)
(0.0110268 0.00013420391 4.0698063e-20)
(0.021522604 -0.0042490902 -1.8383274e-20)
(0.033498328 -0.008567758 -1.2296163e-20)
(0.0469211 -0.012795755 5.534822e-22)
(0.061760806 -0.016912102 3.2302857e-20)
(0.07795386 -0.020901956 -1.4829663e-20)
(0.09539326 -0.024763705 -5.3339541e-20)
(0.11439961 -0.028380092 4.5765317e-20)
(0.13634673 -0.031073512 3.3013398e-20)
(-0.0039704211 0.0094657629 -6.8788954e-22)
(-0.0090916797 0.020487853 -1.253479e-20)
(-0.012364491 0.026159157 -3.4144686e-20)
(-0.013552547 0.028143405 -5.7241965e-21)
(-0.012533222 0.02755506 -3.6222779e-21)
(-0.0093166704 0.025188097 6.3051395e-21)
(-0.0039455426 0.021627419 -4.6462293e-21)
(0.0035262907 0.017298939 -8.8070835e-21)
(0.013037056 0.012508699 2.1899829e-20)
(0.024521562 0.0074743553 5.0567339e-21)
(0.037915957 0.0023487801 -2.5290437e-20)
(0.053157976 -0.0027629467 1.1078335e-20)
(0.070187523 -0.0077910779 0)
(0.088947375 -0.012691549 1.2089644e-20)
(0.10938639 -0.01743721 -9.7016738e-21)
(0.13145853 -0.022010235 -1.4337211e-20)
(0.15507536 -0.026409035 -1.5738773e-21)
(0.18006909 -0.030659863 -2.2181799e-21)
(0.20685511 -0.034577032 4.6147323e-20)
(0.23766551 -0.03702042 -1.0470232e-20)
(-0.0046451096 0.0097808909 -7.5356942e-21)
(-0.0096772681 0.020747933 2.45165e-20)
(-0.011064384 0.026161036 -1.0499394e-20)
(-0.0090968068 0.027724495 -2.7469392e-20)
(-0.0039796498 0.026601727 -2.7548242e-20)
(0.0040963142 0.023648415 -1.4921636e-20)
(0.014954356 0.019496432 -6.9060641e-22)
(0.028436532 0.014604645 5.5500099e-21)
(0.044403548 0.0093033482 1.9615975e-20)
(0.062731017 0.0038282758 7.3531208e-21)
(0.08330497 -0.0016549384 -7.1862548e-21)
(0.10601978 -0.0070324679 -2.0102354e-21)
(0.13077454 -0.012229375 -3.8191905e-20)
(0.15747058 -0.017200081 -1.2693711e-20)
(0.18601333 -0.021920115 1.8750721e-20)
(0.21631331 -0.026380153 -2.10218e-20)
(0.24823399 -0.030602716 -8.9731095e-21)
(0.28152066 -0.034671162 3.0440619e-20)
(0.31660926 -0.038365438 5.0472341e-20)
(0.35665263 -0.039964782 3.3559884e-21)
(-0.0049617784 0.0093140221 1.6783357e-20)
(-0.0091662769 0.019097749 1.4467983e-20)
(-0.0078593446 0.023563404 5.114567e-20)
(-0.0018584698 0.024328966 2.3388077e-20)
(0.0082958614 0.022523781 1.8251858e-22)
(0.022222165 0.019014351 -3.9388629e-20)
(0.039597772 0.014440866 -2.4313956e-20)
(0.060148356 0.0092662487 1.0465863e-20)
(0.083639705 0.0038230733 1.4401648e-20)
(0.10986744 -0.0016515008 -1.3113765e-20)
(0.13864654 -0.0069912605 -4.4038912e-20)
(0.1698028 -0.01208315 2.9618635e-20)
(0.20316535 -0.016854515 2.0020638e-20)
(0.23856097 -0.021264407 -2.7551288e-20)
(0.27581404 -0.025296873 1.1650197e-20)
(0.31475007 -0.028957698 2.4197736e-20)
(0.35514766 -0.032303644 8.0724416e-21)
(0.39663632 -0.035507333 -1.1764287e-20)
(0.43957969 -0.038393368 -1.4190353e-20)
(0.48798803 -0.038635197 5.8728536e-21)
(-0.0047307821 0.0081236891 1.1093885e-20)
(-0.0070585919 0.015671195 -2.3352821e-20)
(-0.0020293114 0.01856204 8.6200674e-21)
(0.0090326468 0.01821621 3.3588099e-20)
(0.025256583 0.015651104 5.2124521e-20)
(0.046066675 0.011695521 2.0276586e-20)
(0.070984997 0.0069608286 -5.8639565e-21)
(0.099602577 0.0018827824 -1.228633e-20)
(0.13156974 -0.003227415 -6.205773e-21)
(0.16657666 -0.0081499248 3.4240971e-20)
(0.20433544 -0.01273364 -4.5104642e-21)
(0.24456625 -0.016879561 -1.6643375e-20)
(0.28698633 -0.020529117 -1.9693653e-20)
(0.33130185 -0.023656901 -4.7443955e-20)
(0.37720669 -0.026266082 2.3238811e-20)
(0.42439005 -0.028388472 -1.4096054e-20)
(0.47250232 -0.030128295 2.5993542e-20)
(0.521039 -0.031783928 2.1040935e-20)
(0.57021698 -0.033351486 -8.5570742e-20)
(0.6247124 -0.03205972 -1.080514e-22)
(-0.0037710509 0.0063146462 2.1925126e-20)
(-0.0028657339 0.010735091 -2.6165635e-20)
(0.0071422052 0.011564109 -4.501345e-20)
(0.024450431 0.0099249325 -2.7253882e-20)
(0.047871173 0.0066522122 -2.0439945e-21)
(0.076629171 0.002490482 1.3050143e-20)
(0.11007737 -0.0020155752 -2.833778e-21)
(0.14765288 -0.0064881315 1.81186e-20)
(0.18886199 -0.01066378 8.8685901e-21)
(0.2332532 -0.01436275 -1.1380213e-20)
(0.28039297 -0.017469331 8.8779551e-21)
(0.32984775 -0.019917242 -2.3903362e-20)
(0.38117076 -0.02167919 8.0505182e-21)
(0.43389305 -0.022760426 1.6756468e-20)
(0.4875218 -0.023194912 -2.6395239e-21)
(0.54154983 -0.023047565 1.6619034e-21)
(0.59543834 -0.022470183 -3.195703e-22)
(0.64852091 -0.021870907 1.9590519e-20)
(0.70082563 -0.021445932 4.0434195e-21)
(0.75745487 -0.018500024 -5.734489e-22)
(-0.0019110033 0.0040273451 2.3692201e-20)
(0.0038694948 0.0046764894 5.7160186e-20)
(0.020315469 0.003187901 -4.9244395e-20)
(0.04517857 0.00029432563 -9.9454511e-21)
(0.076965592 -0.0034242935 2.0256415e-20)
(0.11469685 -0.0073537716 2.1433789e-21)
(0.15753965 -0.011055188 -2.9815259e-20)
(0.20474935 -0.014244418 6.9848293e-21)
(0.25565077 -0.016738255 7.1098181e-21)
(0.30960624 -0.018427334 -2.6254174e-20)
(0.36598824 -0.019260526 1.292739e-21)
(0.42416159 -0.019232348 -3.7174262e-20)
(0.48347326 -0.018372739 -3.6341171e-20)
(0.54324813 -0.01673887 6.5683784e-20)
(0.60279082 -0.014407956 5.5627766e-21)
(0.66139173 -0.011476616 -1.5188889e-20)
(0.7183109 -0.0081028299 1.936406e-20)
(0.77270219 -0.00459372 -9.1888592e-22)
(0.82409163 -0.00096897555 2.0364625e-20)
(0.87622299 0.0043270635 -1.9554303e-20)
(-0.0188361 -0.0050997615 5.835254e-20)
(-0.010224237 -0.0056349911 1.5783792e-20)
(-0.0002206591 -0.0060689501 -3.5139855e-20)
(0.010823893 -0.0063341849 1.6790394e-20)
(0.02264328 -0.0065121271 0)
(0.035178858 -0.0066301748 0)
(0.048370811 -0.0066910627 -2.2975171e-20)
(0.062139419 -0.0067026335 -1.6503032e-20)
(0.07641427 -0.0066742722 1.9122802e-20)
(0.091135857 -0.0066127677 1.8174233e-20)
(0.10624921 -0.0065233117 1.0524336e-21)
(0.12170252 -0.0064104677 -1.0317746e-20)
(0.13744748 -0.0062781945 8.3269932e-21)
(0.15343889 -0.0061298394 1.823392e-20)
(0.16963398 -0.0059682655 -5.2275033e-21)
(0.18599211 -0.0057959584 -1.0175051e-20)
(0.20247451 -0.0056150893 -4.3196369e-21)
(0.21904417 -0.0054275671 -4.4257787e-21)
(0.23566566 -0.0052350839 7.366762e-22)
(0.25230511 -0.0050391502 1.2286228e-21)
(0.26893019 -0.004841121 2.5666855e-21)
(0.28551011 -0.0046422161 6.6540524e-21)
(0.3020157 -0.0044435347 2.4892218e-22)
(0.31841941 -0.0042460663 -3.4515361e-21)
(0.3346954 -0.0040506985 1.555843e-22)
(0.35081962 -0.0038582231 -5.7711069e-22)
(0.3667698 -0.0036693398 1.2434667e-21)
(0.38252554 -0.0034846614 1.052259e-21)
(0.39806833 -0.0033047162 -1.2988579e-21)
(0.41338155 -0.0031299526 -1.2218456e-22)
(0.42845047 -0.0029607425 3.5713137e-23)
(0.44326226 -0.002797386 -3.51892e-22)
(0.45780592 -0.0026401163 -4.0569488e-22)
(0.47207228 -0.0024891048 5.5440959e-23)
(0.48605392 -0.0023444668 -1.3810101e-22)
(0.49974517 -0.0022062677 -2.2344717e-22)
(0.51314203 -0.0020745299 2.5574212e-22)
(0.52624215 -0.0019492389 2.9505156e-22)
(0.53904477 -0.0018303533 -8.2931035e-24)
(0.55155101 -0.0017178075 -1.5522976e-22)
(0.56376287 -0.0016115408 3.0406256e-23)
(0.57568695 -0.001511453 -4.0151333e-23)
(0.58732347 -0.0014176155 9.2249856e-23)
(0.59870149 -0.0013296921 2.1967818e-23)
(0.60977535 -0.0012489678 -1.1407436e-22)
(0.62073734 -0.0011722313 -6.7722445e-24)
(0.63110928 -0.0011117211 -6.6784754e-26)
(0.64240356 -0.0010344586 -3.5784618e-24)
(0.65048468 -0.0010513801 2.944866e-23)
(0.66707742 -0.00087621449 3.6066392e-22)
(0.010446424 -0.01501779 -1.2746941e-20)
(0.018180358 -0.016641211 -6.3302857e-20)
(0.02778 -0.017915631 -3.0542228e-20)
(0.038386069 -0.018672305 3.8476369e-20)
(0.049622063 -0.019183836 1.4662752e-20)
(0.061507872 -0.019529695 -1.8205126e-20)
(0.074014245 -0.019710142 4.6722746e-21)
(0.087064291 -0.019746782 2.5447443e-20)
(0.10059498 -0.019667584 9.1969046e-23)
(0.11455608 -0.019492015 -7.6592195e-21)
(0.12889949 -0.019234686 -1.302112e-20)
(0.14357859 -0.01890865 -8.5246513e-21)
(0.1585495 -0.018525322 1.7772535e-20)
(0.17377071 -0.01809436 8.9297314e-21)
(0.18920248 -0.017624049 -1.6522589e-20)
(0.2048066 -0.017121612 -6.0391307e-21)
(0.22054635 -0.016593387 3.2145311e-21)
(0.23638635 -0.016044971 8.3717152e-21)
(0.25229256 -0.015481343 6.9833328e-21)
(0.26823221 -0.014906962 -6.9728641e-21)
(0.28417389 -0.014325846 -3.168658e-21)
(0.30008757 -0.013741617 1.3606158e-21)
(0.31594466 -0.013157553 3.8691118e-22)
(0.33171813 -0.012576608 1.2114386e-21)
(0.3473825 -0.012001438 1.8370635e-22)
(0.362914 -0.011434418 -3.266435e-22)
(0.37829055 -0.01087765 -7.2438633e-22)
(0.39349188 -0.010332979 9.7164866e-22)
(0.40849951 -0.0098019981 8.2489153e-22)
(0.42329678 -0.0092860641 -1.5153744e-22)
(0.43786888 -0.0087863057 5.5312002e-22)
(0.45220282 -0.0083036376 -2.3882017e-22)
(0.46628739 -0.0078387745 -3.7075707e-22)
(0.48011317 -0.0073922471 -6.1006452e-22)
(0.49367244 -0.0069644185 4.4175164e-22)
(0.50695918 -0.0065555028 -1.5545443e-23)
(0.51996901 -0.0061655851 1.6131977e-22)
(0.53269919 -0.0057946407 -4.4186153e-22)
(0.54514851 -0.0054425632 3.720519e-22)
(0.55731764 -0.0051091746 6.7190858e-23)
(0.56920809 -0.0047943106 -1.028569e-22)
(0.58082599 -0.004497688 1.7625261e-22)
(0.5921711 -0.0042195368 2.3357945e-22)
(0.60327173 -0.0039588673 1.6942893e-22)
(0.61408241 -0.0037195295 1.6787815e-22)
(0.62479256 -0.0034919621 -2.6137267e-23)
(0.63493037 -0.003312638 8.4248338e-23)
(0.64598529 -0.0030833979 7.6496958e-23)
(0.65388688 -0.003134078 -1.9495781e-22)
(0.6701606 -0.0026143973 -3.7992178e-23)
(0.067615663 -0.024029454 9.4529162e-21)
(0.073590754 -0.026749386 3.2951465e-21)
(0.082266721 -0.028805934 -1.2162362e-20)
(0.09194918 -0.029968894 -1.2258254e-21)
(0.10198473 -0.030768277 1.4970754e-20)
(0.11254802 -0.031331327 -1.4887268e-20)
(0.12367783 -0.031636528 -2.9842598e-20)
(0.13529889 -0.031713484 1.44937e-20)
(0.14735924 -0.031608134 1.8182188e-20)
(0.15982594 -0.031350574 -1.1598661e-20)
(0.17266335 -0.030962357 1.0190667e-21)
(0.18583384 -0.030463309 8.6860625e-21)
(0.19930114 -0.029871125 -1.5253756e-20)
(0.21303018 -0.02920083 2.9096676e-21)
(0.22698636 -0.028465368 7.519564e-21)
(0.24113568 -0.02767613 3.1508542e-23)
(0.25544479 -0.0268432 2.6550779e-22)
(0.2698811 -0.025975555 -7.4152375e-21)
(0.28441277 -0.025081241 3.861862e-21)
(0.29900889 -0.024167513 8.4750977e-21)
(0.31363951 -0.023240945 -3.8352666e-21)
(0.3282758 -0.022307504 -2.2130745e-21)
(0.34289013 -0.021372605 1.0124331e-21)
(0.35745619 -0.020441157 -1.7155975e-21)
(0.3719491 -0.019517586 1.3532533e-21)
(0.38634546 -0.018605862 7.1847545e-22)
(0.40062347 -0.017709516 1.527002e-21)
(0.41476296 -0.016831652 -1.9528391e-21)
(0.42874545 -0.015974967 2.2237882e-21)
(0.44255418 -0.015141763 5.5193642e-22)
(0.45617409 -0.01433397 4.0335935e-22)
(0.46959186 -0.013553163 3.2135942e-22)
(0.48279588 -0.012800585 8.7341356e-22)
(0.49577619 -0.012077176 -1.3711241e-21)
(0.50852451 -0.011383598 3.7074396e-22)
(0.52103415 -0.010720264 1.0950648e-22)
(0.53330003 -0.010087373 -4.520535e-23)
(0.54531864 -0.0094849442 8.6696491e-23)
(0.55708794 -0.0089128561 -3.7196812e-22)
(0.56860776 -0.0083708696 1.8302488e-22)
(0.57987873 -0.0078587668 -3.4996203e-23)
(0.59090604 -0.0073761302 3.9034913e-22)
(0.60168861 -0.006923391 -1.8560429e-22)
(0.61225341 -0.0064989606 4.7352836e-23)
(0.62255526 -0.0061092354 4.3661836e-23)
(0.63277817 -0.0057385175 -7.3704483e-23)
(0.64246252 -0.0054467873 -1.2110027e-22)
(0.65305374 -0.0050730508 3.8880022e-22)
(0.66060695 -0.0051571162 1.7296936e-22)
(0.67626233 -0.0043102699 -8.3075673e-22)
(0.15021681 -0.031460873 1.5010387e-21)
(0.15354853 -0.035257874 -1.1566678e-20)
(0.160618 -0.038011436 6.6442237e-21)
(0.16880783 -0.039479646 -1.3324858e-20)
(0.17698433 -0.040521267 -1.9758492e-21)
(0.18552572 -0.041302887 9.1600582e-21)
(0.19458665 -0.041757873 -9.7663758e-21)
(0.20408957 -0.041914374 1.5662463e-21)
(0.21399054 -0.041834022 1.2903936e-20)
(0.22427908 -0.041555053 3.4032707e-21)
(0.23493587 -0.041102788 -6.2097652e-21)
(0.24593381 -0.040501217 -2.8638791e-21)
(0.25724546 -0.039772541 -5.8409199e-21)
(0.26884329 -0.038935872 -6.4554273e-21)
(0.28069872 -0.038007815 3.2356566e-21)
(0.29278245 -0.037003166 8.4612571e-22)
(0.30506492 -0.035935212 1.3680129e-21)
(0.31751655 -0.034815932 -3.3850897e-21)
(0.33010792 -0.033656183 -4.2430245e-21)
(0.34281003 -0.032465854 2.3617282e-21)
(0.35559443 -0.03125398 3.225269e-21)
(0.36843349 -0.030028825 -1.5637259e-21)
(0.38130048 -0.028797939 1.5867928e-21)
(0.39416977 -0.027568198 -3.9128738e-22)
(0.40701696 -0.02634584 -3.9198864e-21)
(0.41981893 -0.025136482 -3.0333951e-21)
(0.43255401 -0.023945142 -1.9031002e-22)
(0.44520202 -0.022776253 4.2856003e-22)
(0.45774429 -0.021633686 -2.2107131e-21)
(0.47016378 -0.020520767 -8.5512323e-22)
(0.48244499 -0.019440305 2.2838546e-22)
(0.49457407 -0.018394614 -1.2500452e-21)
(0.50653875 -0.01738555 6.222931e-24)
(0.51832832 -0.016414543 -4.2430723e-22)
(0.52993367 -0.015482635 -4.7197308e-22)
(0.5413472 -0.014590525 -5.2015246e-22)
(0.5525628 -0.013738607 -8.4163598e-22)
(0.56357591 -0.012927023 -5.447519e-23)
(0.57438339 -0.01215572 -3.9166931e-24)
(0.58498389 -0.011424477 -5.1995973e-22)
(0.59537687 -0.010733098 -9.158104e-23)
(0.6055662 -0.010081109 -3.3261824e-22)
(0.61554974 -0.0094692033 -4.3798623e-22)
(0.62535254 -0.008895284 3.7876933e-22)
(0.63492995 -0.0083682459 1.4835409e-23)
(0.6444583 -0.007866629 1.8262262e-22)
(0.65349548 -0.0074726612 -1.3276358e-22)
(0.66342374 -0.00696651 -2.6737625e-22)
(0.670479 -0.0070831597 -4.4431059e-23)
(0.68524754 -0.0059372258 4.6251552e-22)
(0.25468776 -0.036553339 -2.0900496e-20)
(0.25447242 -0.04139413 4.7586298e-20)
(0.25907568 -0.044746319 1.0348164e-20)
(0.26508663 -0.046442741 -1.5765453e-20)
(0.270712 -0.047715048 -2.0228407e-21)
(0.27652278 -0.048748543 2.6232191e-21)
(0.28283851 -0.04941452 -1.660868e-21)
(0.28958012 -0.049728935 -4.6861878e-21)
(0.2967 -0.049762299 -4.0159582e-21)
(0.30420911 -0.049557953 -1.220777e-20)
(0.31210606 -0.049142619 1.7898012e-20)
(0.32037351 -0.048541764 6.5221072e-21)
(0.3289914 -0.047779958 -1.6780723e-20)
(0.33793871 -0.046879041 1.0317618e-20)
(0.34719207 -0.045858352 8.3850089e-21)
(0.35672606 -0.044735394 -8.7915851e-22)
(0.36651411 -0.043526178 -3.1222014e-21)
(0.37652892 -0.042245388 -3.8198773e-21)
(0.38674283 -0.04090653 -1.3893249e-21)
(0.39712814 -0.039522054 -1.2304829e-21)
(0.40765737 -0.038103455 -3.0259046e-21)
(0.41830355 -0.036661336 0)
(0.42904041 -0.035205456 -1.3452667e-21)
(0.43984255 -0.033744761 3.9310716e-21)
(0.45068565 -0.032287406 5.4055234e-21)
(0.46154652 -0.030840775 -9.4114477e-22)
(0.47240329 -0.029411494 -2.9276988e-21)
(0.48323542 -0.028005451 3.0261542e-21)
(0.49402379 -0.026627813 2.5439012e-22)
(0.50475077 -0.025283054 3.4356062e-21)
(0.5154002 -0.02397498 -5.3461797e-22)
(0.52595741 -0.022706766 1.717523e-21)
(0.53640925 -0.021480997 -7.9977788e-22)
(0.54674406 -0.020299708 2.9104837e-22)
(0.55695163 -0.019164436 -4.3416156e-22)
(0.56702324 -0.018076271 5.6241178e-22)
(0.57695158 -0.017035915 4.5723481e-22)
(0.58673081 -0.016043737 3.826857e-22)
(0.59635649 -0.015099856 -9.5971538e-22)
(0.60582589 -0.014204167 6.8384504e-22)
(0.61513709 -0.013356595 -3.6974553e-22)
(0.62429245 -0.0125567 -1.1040069e-21)
(0.63328859 -0.011805518 1.4088326e-21)
(0.64214826 -0.011100554 -6.2046039e-23)
(0.65082764 -0.010453128 -1.583239e-22)
(0.65949346 -0.0098365185 -7.8348739e-24)
(0.66772586 -0.0093534861 -1.264957e-22)
(0.67682732 -0.0087307505 -4.6655454e-22)
(0.68326236 -0.008878769 8.7865728e-22)
(0.69691929 -0.0074706934 -4.4342392e-23)
(0.37635394 -0.038368885 -1.7495256e-20)
(0.37171254 -0.044270989 1.2832124e-20)
(0.37286981 -0.048162416 2.9755232e-21)
(0.37591352 -0.050099694 -7.6354376e-21)
(0.37830849 -0.051670854 1.2056087e-20)
(0.38072633 -0.053043295 7.7914833e-21)
(0.38367959 -0.054031001 -1.2647778e-20)
(0.38710435 -0.054634102 -6.0680359e-21)
(0.39093321 -0.054919041 1.2697468e-20)
(0.39518662 -0.054928208 -1.5305208e-20)
(0.39987867 -0.054688625 -1.4063342e-20)
(0.40499974 -0.054225798 1.4129888e-20)
(0.41053355 -0.053564841 6.8194672e-21)
(0.41646239 -0.052729165 -4.203951e-21)
(0.42276565 -0.051740267 -1.8544987e-21)
(0.42941986 -0.050618035 -4.0581374e-21)
(0.43639964 -0.049381023 5.3047341e-21)
(0.44367848 -0.048046584 3.6682607e-21)
(0.45122914 -0.046630941 -3.2408522e-21)
(0.45902409 -0.045149245 3.1379957e-21)
(0.46703581 -0.043615628 2.7667767e-21)
(0.47523712 -0.042043236 -3.2112216e-21)
(0.48360139 -0.040444253 3.705729e-22)
(0.49210279 -0.038829914 -3.2572248e-21)
(0.50071644 -0.03721051 7.2459204e-21)
(0.50941855 -0.035595403 6.1084036e-21)
(0.51818651 -0.033993032 8.098507e-22)
(0.52699901 -0.032410934 -1.7684254e-21)
(0.53583609 -0.03085576 3.702603e-21)
(0.54467917 -0.029333305 7.1893226e-21)
(0.5535111 -0.027848542 2.305123e-21)
(0.56231618 -0.026405666 3.3169375e-21)
(0.57108011 -0.025008141 1.9958727e-21)
(0.57979005 -0.023658751 7.4571836e-22)
(0.58843456 -0.022359667 -2.6376493e-22)
(0.59700361 -0.021112504 2.7209301e-21)
(0.60548856 -0.019918395 6.2007502e-22)
(0.61388219 -0.018778061 2.949522e-22)
(0.62217862 -0.017691907 5.6246178e-23)
(0.63037368 -0.01666006 9.9010604e-22)
(0.63846398 -0.015682666 4.703313e-23)
(0.64645029 -0.014759429 4.4275269e-22)
(0.65432792 -0.013891804 -1.2628639e-22)
(0.66211718 -0.013077027 -2.7759323e-22)
(0.66977531 -0.012328738 -1.5233434e-22)
(0.67745804 -0.011615548 -4.2257273e-22)
(0.68477172 -0.01105868 1.6171374e-22)
(0.69292548 -0.010337845 -1.2741237e-22)
(0.69865152 -0.010515657 -5.0114742e-22)
(0.71102523 -0.0088887828 2.4602002e-22)
(0.50927738 -0.035975121 3.6471324e-21)
(0.49953359 -0.042961544 -1.8958399e-20)
(0.49627889 -0.047384386 -2.3084097e-21)
(0.49555939 -0.049737733 5.4869881e-21)
(0.49417316 -0.051819041 3.0528568e-21)
(0.49269952 -0.05370645 -4.9843098e-23)
(0.49181625 -0.055188731 6.1897757e-21)
(0.49151866 -0.056266522 7.6251889e-21)
(0.49171601 -0.056991698 9.8581227e-21)
(0.49241527 -0.057396779 -1.1250174e-20)
(0.49363582 -0.057507547 -2.1579718e-20)
(0.49537279 -0.057349703 -3.9354453e-21)
(0.49760994 -0.056948456 1.5938383e-20)
(0.50032855 -0.056328373 1.2809152e-20)
(0.50350748 -0.055513136 -5.9067254e-21)
(0.50712265 -0.054525288 1.381639e-21)
(0.51114785 -0.053386266 -3.6602202e-21)
(0.51555555 -0.05211646 2.2445684e-21)
(0.52031745 -0.05073521 -2.9123464e-22)
(0.5254049 -0.04926077 -1.8654612e-21)
(0.53078924 -0.04771031 7.8268846e-21)
(0.53644208 -0.046099906 -2.9314515e-22)
(0.54233562 -0.044444534 4.1824176e-22)
(0.54844283 -0.04275806 -6.5642318e-22)
(0.5547376 -0.041053236 -4.3031214e-21)
(0.56119489 -0.0393417 4.2087116e-21)
(0.56779088 -0.037633985 1.9031656e-21)
(0.57450299 -0.035939532 -3.3083763e-21)
(0.58131001 -0.034266712 -4.1118156e-21)