/*--------------------------------*- C++ -*----------------------------------*\
  =========                 |
  \\      /  F ield         | OpenFOAM: The Open Source CFD Toolbox
   \\    /   O peration     | Website:  https://openfoam.org
    \\  /    A nd           | Version:  6
     \\/     M anipulation  |
\*---------------------------------------------------------------------------*/
FoamFile
{
    version     2.0;
    format      ascii;
    class       volVectorField;
    location    "199";
    object      UMean;
}
// * * * * * * * * * * * * * * * * * * * * * * * * * * * * * * * * * * * * * //

dimensions      [0 1 -1 0 0 0 0];

internalField   nonuniform List<vector> 
9200
(
(0.0017323548 0.00088981703 -6.1030598e-20)
(0.015979997 -0.0037289567 4.8454987e-20)
(0.042374179 -0.008513911 -3.9948647e-20)
(0.078196717 -0.013255756 -6.3317231e-20)
(0.12155747 -0.01773739 1.9653951e-20)
(0.17119579 -0.021525194 3.4416503e-20)
(0.22601067 -0.024332919 -1.2870845e-20)
(0.28498497 -0.026019283 9.7374123e-21)
(0.3471681 -0.026529686 1.7943024e-20)
(0.41164468 -0.02587286 1.5859373e-21)
(0.4775114 -0.024109585 -2.2976879e-20)
(0.5438686 -0.02134167 2.2078106e-20)
(0.6098239 -0.017700964 -4.308322e-20)
(0.67450538 -0.013338206 -2.2648254e-20)
(0.73708291 -0.0084112232 6.3288726e-21)
(0.79679473 -0.003075232 -2.7006589e-20)
(0.8529923 0.0025401093 2.7140246e-20)
(0.905262 0.0084766798 2.408746e-20)
(0.9532437 0.01486306 -2.5835803e-22)
(0.99429925 0.018381509 -1.5892681e-21)
(0.0061480561 -0.0019429489 -1.7582149e-20)
(0.029807458 -0.010794366 4.1627332e-20)
(0.066546454 -0.017607331 2.422984e-20)
(0.11323766 -0.022798715 -1.2085007e-19)
(0.16768589 -0.026559101 -1.3225093e-20)
(0.228371 -0.028689396 7.7017761e-20)
(0.29392411 -0.029106339 -3.7271947e-20)
(0.36304864 -0.02785714 -8.8840713e-21)
(0.43450962 -0.025059183 3.6354192e-20)
(0.507111 -0.020880893 -4.597255e-20)
(0.5796853 -0.015533903 -3.2431253e-20)
(0.65110131 -0.0092625961 7.7002297e-20)
(0.72028495 -0.0023322318 4.090341e-20)
(0.78624842 0.0049827526 -7.2738503e-20)
(0.84812345 0.012408721 1.5647995e-20)
(0.90519309 0.019677504 -3.9311886e-20)
(0.95693066 0.02654019 -1.4901043e-20)
(1.0030966 0.032839578 7.5879809e-20)
(1.0436072 0.038171108 3.2503777e-20)
(1.0767361 0.039446893 -8.5312631e-20)
(0.011972968 -0.0046797167 3.7540623e-20)
(0.047364337 -0.017297364 2.3160019e-21)
(0.096220633 -0.025388105 2.2722919e-20)
(0.15505967 -0.03011662 1.0203865e-21)
(0.22139184 -0.032166249 -4.1973123e-20)
(0.29341325 -0.031636742 1.96331e-20)
(0.36945379 -0.028708232 1.382816e-20)
(0.44790694 -0.023674085 -5.2930517e-20)
(0.52723591 -0.016876406 6.0508735e-20)
(0.60597045 -0.0086885811 1.5391736e-20)
(0.68271816 0.00049235759 -5.7910032e-20)
(0.75619344 0.010259399 -1.9575035e-20)
(0.82525563 0.020212045 9.3451877e-21)
(0.88894823 0.029972466 2.4982775e-20)
(0.94653266 0.039199242 -1.2076931e-20)
(0.99750962 0.047596073 2.9628535e-20)
(1.0416299 0.05492548 -2.1547436e-20)
(1.0789224 0.061055583 -7.4094629e-20)
(1.1095696 0.065724588 -2.439553e-20)
(1.1327696 0.067074408 5.0794751e-20)
(0.01930048 -0.0070706668 2.4882306e-20)
(0.06876083 -0.022541226 5.2446983e-20)
(0.13137102 -0.030816443 2.0546265e-20)
(0.20337032 -0.033931933 1.376497e-20)
(0.281994 -0.0331503 1.820255e-20)
(0.36513921 -0.02893927 -4.9935646e-20)
(0.45082024 -0.021806053 -2.6966135e-20)
(0.53712338 -0.012346663 0)
(0.62224185 -0.0011729583 1.5547378e-20)
(0.70450161 0.011107267 -6.7210737e-21)
(0.78239874 0.023901565 -1.0368437e-19)
(0.85464731 0.036652346 -1.6526621e-20)
(0.92022575 0.048858658 6.9140389e-20)
(0.97841183 0.060095175 4.7662055e-22)
(1.0287995 0.070025871 -1.6621914e-21)
(1.0712937 0.07841037 2.3153012e-20)
(1.1060844 0.085110086 -5.4023698e-21)
(1.1336205 0.090116308 -6.4274613e-20)
(1.1544906 0.09340929 -4.826681e-20)
(1.1687006 0.094043742 7.1599676e-20)
(0.028153864 -0.0088331768 -3.8358225e-21)
(0.093885915 -0.025775265 -4.7955973e-21)
(0.17159107 -0.032820429 5.8125373e-20)
(0.2573391 -0.032986071 1.9443178e-20)
(0.34813146 -0.028195702 -3.3609552e-20)
(0.44157775 -0.019354009 1.2424868e-20)
(0.53540286 -0.0073541824 2.7725834e-21)
(0.62744463 0.0068616003 3.5652192e-20)
(0.71572676 0.022389131 5.9798389e-21)
(0.79851661 0.038388589 -1.4218205e-20)
(0.8743832 0.05410132 6.4044767e-20)
(0.94225048 0.068873921 -6.1061809e-20)
(1.0014323 0.082180586 -1.3939687e-19)
(1.0516407 0.093637267 -5.8723764e-21)
(1.0929657 0.10300552 8.7271098e-20)
(1.1258266 0.11018546 0)
(1.1509046 0.11520435 1.073641e-20)
(1.1690719 0.11821922 -1.6061023e-20)
(1.1812763 0.1194149 -9.1305884e-21)
(1.1880954 0.11840195 2.1617891e-20)
(0.038466268 -0.0096624072 -5.1194938e-21)
(0.12237716 -0.026237974 4.4523547e-21)
(0.21608515 -0.030380966 -8.9938111e-21)
(0.31563848 -0.02617128 2.90614e-20)
(0.41788192 -0.016257815 -3.071155e-20)
(0.52019431 -0.0020391293 -1.7673081e-20)
(0.62009651 0.015166497 3.8217613e-20)
(0.71530631 0.034057683 4.7684334e-21)
(0.80385038 0.053455403 -2.6230229e-20)
(0.88414593 0.07233685 7.3466175e-20)
(0.95506213 0.089854433 2.7109846e-22)
(1.015955 0.1053568 -8.4670276e-20)
(1.066666 0.1184008 0)
(1.1074815 0.1287484 4.1309182e-20)
(1.139061 0.13634885 5.7151944e-21)
(1.1623408 0.14130863 -8.0675075e-20)
(1.17843 0.14385705 -2.0394145e-20)
(1.1885137 0.14432396 -1.2882492e-20)
(1.1937474 0.14305181 -1.5266033e-20)
(1.1949877 0.13998207 4.1824218e-20)
(0.050067788 -0.0092522852 -1.7308432e-20)
(0.1536051 -0.02321613 -3.1599287e-21)
(0.26367856 -0.022621703 3.0692416e-20)
(0.3765041 -0.012641669 3.7666705e-20)
(0.48889322 0.0033196615 -2.051938e-20)
(0.59810899 0.023342492 -7.2121096e-20)
(0.70162101 0.045682967 -2.9557153e-20)
(0.79722292 0.068715689 8.2522373e-20)
(0.88317229 0.091057669 9.3017478e-21)
(0.95827601 0.11160421 -2.5888259e-20)
(1.0219286 0.12953966 1.408315e-20)
(1.0741014 0.1443413 -4.5510844e-21)
(1.1152828 0.15576582 0)
(1.1463777 0.16381591 2.833994e-20)
(1.1685823 0.16869177 -8.2429419e-20)
(1.1832531 0.17073439 -3.2688804e-20)
(1.191784 0.17037046 8.3902606e-20)
(1.1955093 0.16807305 -4.7059354e-21)
(1.1956242 0.164284 3.6029382e-21)
(1.1930364 0.1591294 2.8172205e-20)
(0.062679567 -0.0073233483 -3.2567203e-20)
(0.18667946 -0.016116612 -8.3449806e-20)
(0.3128629 -0.0089064771 1.7017173e-21)
(0.43783851 0.0080836796 7.2528641e-20)
(0.55855706 0.030717924 6.4532928e-20)
(0.67234216 0.056575996 -7.3528308e-20)
(0.7768264 0.083543118 2.1497175e-22)
(0.87012326 0.10976418 8.9554596e-20)
(0.9509715 0.13377842 5.0884407e-20)
(1.0187953 0.15454403 -5.6646424e-20)
(1.0736909 0.17142371 -9.6218734e-20)
(1.1163488 0.18415375 -3.2866049e-21)
(1.1479254 0.19279063 4.3759831e-20)
(1.1698864 0.19763872 -6.7863984e-21)
(1.1838456 0.19916953 -1.3175656e-20)
(1.1914203 0.1979431 2.0109063e-20)
(1.1941177 0.19454188 4.5273345e-20)
(1.1932616 0.189527 -4.5055136e-20)
(1.1899523 0.18337753 -1.0539945e-19)
(1.1850065 0.17630988 2.5515009e-20)
(0.07588432 -0.0036533963 -3.5739533e-20)
(0.22041085 -0.0045420901 -1.7549624e-19)
(0.36177209 0.011078571 8.5206026e-20)
(0.4972157 0.036060467 9.5757991e-20)
(0.62405112 0.06562574 5.9645655e-20)
(0.73989328 0.096935589 8.9484455e-21)
(0.84279291 0.12762275 -1.0997418e-19)
(0.93144056 0.15575589 0)
(1.0052843 0.17996788 -7.1764551e-20)
(1.0645356 0.19944888 -1.58652e-20)
(1.1100826 0.21388664 5.675598e-20)
(1.1433385 0.22338487 1.1333204e-20)
(1.166052 0.22836138 -4.7126574e-20)
(1.1801141 0.22943708 -5.0561713e-20)
(1.1873877 0.22733059 2.5165699e-20)
(1.1895783 0.22277004 4.6341649e-20)
(1.1881522 0.2164299 -5.7328075e-20)
(1.1843037 0.2088958 -1.1053748e-19)
(1.1789594 0.20062981 -3.0782323e-21)
(1.172779 0.19188264 2.7723527e-20)
(0.089109782 0.0019075187 -3.9453282e-21)
(0.25331558 0.011695359 8.9690115e-20)
(0.40822038 0.037329916 -1.4699697e-20)
(0.55196853 0.070944725 -8.7674722e-20)
(0.68247743 0.10728672 4.6688789e-20)
(0.79791143 0.14325466 5.0176074e-20)
(0.89699692 0.1764164 5.7438308e-21)
(0.97922733 0.20497093 -1.029625e-19)
(1.0449234 0.22784437 -2.5958136e-21)
(1.0951631 0.24462801 5.2314126e-20)
(1.1316168 0.25545614 6.1830708e-21)
(1.1563298 0.26086527 -2.0440109e-20)
(1.1714956 0.26164593 -7.8060472e-20)
(1.1792556 0.2587035 -6.3639034e-21)
(1.1815487 0.25294378 4.4730628e-20)
(1.18002 0.24519172 3.7987817e-20)
(1.1759864 0.23614495 2.0184831e-20)
(1.1704478 0.22635682 -5.4682728e-20)
(1.1641307 0.21623415 1.289773e-20)
(1.1575248 0.20603321 8.4481595e-20)
(-0.0013274717 0.0014548161 -8.4735999e-22)
(-0.0047631644 0.0031921584 1.8776318e-21)
(-0.010797022 0.0040983741 1.8185273e-21)
(-0.017666638 0.0044466801 -1.1100971e-21)
(-0.024445862 0.0044092379 -2.341301e-21)
(-0.030706369 0.0041027139 2.4728946e-21)
(-0.036174941 0.0036121073 -8.357017e-21)
(-0.040676694 0.0029988287 -7.210234e-21)
(-0.044117012 0.0023065332 1.2966004e-20)
(-0.0464554 0.0015659915 -1.1140259e-20)
(-0.04768525 0.00079864241 -2.0335925e-22)
(-0.047821027 1.9171084e-05 4.1531957e-21)
(-0.046889775 -0.00076254331 -6.7777729e-22)
(-0.044925322 -0.0015398846 2.524438e-20)
(-0.041964661 -0.0023081107 2.7298801e-22)
(-0.038047444 -0.0030628782 -4.4831899e-20)
(-0.033218396 -0.0037996175 8.3366508e-21)
(-0.027519053 -0.0045162754 2.5876896e-20)
(-0.020960052 -0.0052113794 -4.7412455e-20)
(-0.013604334 -0.0058357404 -2.9882741e-20)
(-0.0016862209 0.0042347038 -5.695258e-21)
(-0.0053938577 0.0092689207 9.7242797e-21)
(-0.011181366 0.011879227 -1.0510402e-20)
(-0.017455345 0.012859778 5.6908472e-21)
(-0.023389216 0.012713098 6.7419787e-21)
(-0.028606112 0.011781536 9.1878271e-22)
(-0.032868738 0.010314639 -2.7562304e-20)
(-0.036028259 0.0084926287 -2.3212571e-21)
(-0.038007659 0.0064436073 2.3204518e-20)
(-0.038777859 0.0042578476 -5.7419167e-21)
(-0.038339376 0.0019982087 -2.454503e-20)
(-0.036710753 -0.00029230045 5.4689337e-21)
(-0.033920934 -0.0025848213 2.4884442e-20)
(-0.03000395 -0.0048601198 1.1366163e-20)
(-0.024995136 -0.0071045021 2.4145986e-20)
(-0.018931614 -0.0093056644 -2.1587337e-20)
(-0.011862157 -0.0114508 -2.3480732e-20)
(-0.0038388776 -0.013533349 2.316838e-20)
(0.0052003609 -0.015538637 2.8788852e-20)
(0.01544718 -0.01729787 1.6739485e-20)
(-0.0023337551 0.0066290798 -4.6261511e-21)
(-0.0064884869 0.014440067 -4.8222612e-21)
(-0.011726308 0.018449477 4.8503948e-23)
(-0.016780269 0.019892445 -1.515843e-22)
(-0.021014794 0.019556706 7.5748309e-21)
(-0.024152183 0.017985299 1.1915393e-20)
(-0.026024873 0.015574924 -4.4245539e-21)
(-0.026534695 0.012612224 -2.14501e-20)
(-0.025639066 0.0093012419 7.4389754e-21)
(-0.023331647 0.0057859762 1.4508372e-20)
(-0.019627649 0.002166787 6.6978841e-21)
(-0.014554767 -0.0014876707 1.9954148e-20)
(-0.0081472175 -0.0051315193 1.9074041e-21)
(-0.00044143047 -0.0087346265 -3.6892735e-20)
(0.008527723 -0.01227593 1.5624361e-21)
(0.018725392 -0.015736906 -2.3554684e-20)
(0.030093764 -0.019100206 -2.6849572e-20)
(0.042556772 -0.022357156 4.980772e-20)
(0.056297814 -0.025454412 2.7584701e-20)
(0.072005496 -0.028026076 4.957289e-22)
(-0.003146833 0.0084260232 -5.7573372e-21)
(-0.0077633634 0.01820276 -1.13227e-20)
(-0.012073219 0.023134077 4.4872763e-21)
(-0.015256249 0.024775266 4.7008954e-21)
(-0.016940515 0.0241297 2.1200844e-21)
(-0.016987301 0.021902079 8.7239698e-21)
(-0.015328194 0.01860886 1.0800135e-20)
(-0.011938078 0.01462347 -1.618959e-21)
(-0.0068252003 0.010212341 -1.2942392e-20)
(-1.8159392e-05 0.005563964 -3.2489126e-20)
(0.0084436928 0.0008099174 1.6678506e-22)
(0.018515326 -0.0039597241 4.4800803e-20)
(0.030150355 -0.0086852239 -1.98509e-20)
(0.043302599 -0.013327755 -1.3404276e-20)
(0.057930165 -0.017861335 2.8962977e-22)
(0.073993752 -0.022265194 3.5097323e-20)
(0.091420494 -0.026524831 -1.6529985e-20)
(0.11009219 -0.030639221 -5.7188034e-20)
(0.13031907 -0.034491771 4.8626432e-20)
(0.15349776 -0.037399268 3.5278393e-20)
(-0.0039606544 0.0094812568 -4.5146378e-22)
(-0.0088308203 0.020202261 -1.331484e-20)
(-0.0117213 0.02544719 -3.8552401e-20)
(-0.012333961 0.026949048 -7.0631502e-21)
(-0.010609619 0.025842659 -3.355448e-21)
(-0.0065781778 0.022945969 7.254792e-21)
(-0.00029400024 0.018860696 -5.4870454e-21)
(0.0081754725 0.014021933 -1.0022293e-20)
(0.01875528 0.0087407778 2.4320775e-20)
(0.031368133 0.003237745 5.4612554e-21)
(0.045938474 -0.0023327607 -2.8190402e-20)
(0.062392358 -0.0078648861 1.1960955e-20)
(0.080657852 -0.013288467 0)
(0.10066554 -0.018559156 1.3112099e-20)
(0.12235155 -0.023649599 -1.0485903e-20)
(0.14565678 -0.028541925 -1.5606434e-20)
(0.17048003 -0.033234719 -9.997206e-22)
(0.19663879 -0.03775537 -2.6303585e-21)
(0.2245295 -0.041922118 4.83096e-20)
(0.25640403 -0.044593975 -1.198026e-20)
(-0.0045870196 0.0097274948 -7.8165867e-21)
(-0.0092334634 0.020257787 2.6670755e-20)
(-0.010060619 0.025132635 -1.1916276e-20)
(-0.0073239198 0.026117979 -3.012149e-20)
(-0.0013024942 0.02439124 -2.9521377e-20)
(0.0077859413 0.020831026 -1.6481921e-20)
(0.019746714 0.016085458 -9.1208798e-22)
(0.034403217 0.01062198 6.1625517e-21)
(0.051598685 0.0047755444 2.145692e-20)
(0.071192466 -0.0012155214 8.037544e-21)
(0.093054892 -0.0071842264 -7.7623125e-21)
(0.11706463 -0.013016087 -1.9547148e-21)
(0.14310484 -0.018635793 -4.1438618e-20)
(0.17106054 -0.023997436 -1.3712463e-20)
(0.20082026 -0.029076206 2.0621646e-20)
(0.23227728 -0.033862485 -2.2877865e-20)
(0.26527882 -0.038378506 -9.6319228e-21)
(0.29955328 -0.042708678 3.1981102e-20)
(0.33550924 -0.046641596 5.3071131e-20)
(0.37630294 -0.048467902 3.643101e-21)
(-0.0048303857 0.009170889 1.7347636e-20)
(-0.0084772403 0.018364645 1.5003225e-20)
(-0.0064079622 0.022178829 5.4688818e-20)
(0.00057131563 0.022279129 2.5532199e-20)
(0.011837382 0.019799511 2.0166698e-22)
(0.026974613 0.015626096 -4.3208576e-20)
(0.045635759 0.01041311 -2.6401145e-20)
(0.067522108 0.0046303327 1.1394297e-20)
(0.092376731 -0.0013862653 1.5647104e-20)
(0.11997412 -0.0073978016 -1.4064853e-20)
(0.15010879 -0.013237403 -4.7856221e-20)
(0.18258614 -0.018791936 3.2147176e-20)
(0.2172149 -0.02398887 2.1412998e-20)
(0.25380142 -0.028787339 -2.9686194e-20)
(0.29214949 -0.03317134 1.2651409e-20)
(0.33206427 -0.037146437 2.5880311e-20)
(0.37330602 -0.040768535 8.7513282e-21)
(0.41548781 -0.044210013 -1.296386e-20)
(0.45894189 -0.047307886 -1.4550573e-20)
(0.50765535 -0.047766392 7.5267861e-21)
(-0.0044988424 0.0078788206 1.1680769e-20)
(-0.0060585375 0.01467672 -2.5399569e-20)
(-4.2556526e-05 0.016807746 8.4811896e-21)
(0.012216826 0.015721674 3.6190639e-20)
(0.029759865 0.012429315 5.5584173e-20)
(0.051969861 0.0077740835 2.182712e-20)
(0.078337413 0.0023776797 -6.2915428e-21)
(0.10842307 -0.0033200977 -1.3235069e-20)
(0.14184885 -0.0090067005 -6.7543958e-21)
(0.1782784 -0.014462173 3.6987372e-20)
(0.21739827 -0.019536086 -5.0582627e-21)
(0.25890364 -0.024130558 -1.8086282e-20)
(0.30248742 -0.028188255 -2.1064285e-20)
(0.34783233 -0.031684897 -5.106066e-20)
(0.39461004 -0.034624528 2.4819928e-20)
(0.44248912 -0.037039355 -1.5057922e-20)
(0.49110312 -0.039032362 2.7916969e-20)
(0.53993587 -0.040898957 2.2560031e-20)
(0.58917676 -0.042646987 -8.9408099e-20)
(0.64345063 -0.041556442 3.1497878e-22)
(-0.0034112142 0.0059656891 2.2807787e-20)
(-0.0014900605 0.00948338 -2.7943215e-20)
(0.0097476512 0.0094569188 -4.7419015e-20)
(0.028476802 0.0070194423 -2.8968964e-20)
(0.053416644 0.0029870817 -2.1855277e-21)
(0.083744754 -0.0018873884 1.405637e-20)
(0.11877601 -0.0070537716 -3.0498389e-21)
(0.15791098 -0.012133989 1.9392607e-20)
(0.20062194 -0.016866216 9.4784942e-21)
(0.24642571 -0.021072958 -1.220967e-20)
(0.29485869 -0.024641266 9.6938074e-21)
(0.34545897 -0.027507874 -2.5697221e-20)
(0.3977536 -0.029648515 8.9473766e-21)
(0.4512503 -0.031071267 1.8021917e-20)
(0.50543662 -0.031812546 -3.0201026e-21)
(0.55979012 -0.031938952 1.9107392e-21)
(0.613763 -0.031601389 -5.8422095e-22)
(0.66668832 -0.031202221 2.1111437e-20)
(0.7185801 -0.030943178 3.9873844e-21)
(0.77446534 -0.028185924 -2.187596e-21)
(-0.00139779 0.0035814543 2.4882775e-20)
(0.005679413 0.0031947258 6.0616043e-20)
(0.023612106 0.0007767946 -5.1586116e-20)
(0.050117918 -0.002950443 -1.0532834e-20)
(0.083608892 -0.0074376111 2.1537131e-20)
(0.12305274 -0.012069573 2.2733003e-21)
(0.16757259 -0.016407739 -3.1670309e-20)
(0.21638166 -0.020172402 7.4482228e-21)
(0.26876581 -0.023185689 7.5662029e-21)
(0.32405168 -0.025343649 -2.8057303e-20)
(0.38157918 -0.026600631 1.3783817e-21)
(0.44068437 -0.026956549 -3.9890628e-20)
(0.5006902 -0.026446477 -3.9021526e-20)
(0.56090345 -0.0251323 7.0553157e-20)
(0.6206178 -0.023095394 5.9698069e-21)
(0.67912082 -0.020435651 -1.6259892e-20)
(0.73567936 -0.017311996 2.0669304e-20)
(0.78946639 -0.014028243 -9.6893845e-22)
(0.8400254 -0.010608877 2.0991935e-20)
(0.89104248 -0.0055358366 -2.1438438e-20)
(-0.0048551688 -0.0061205659 6.2791946e-20)
(0.0054081362 -0.0066396448 1.662077e-20)
(0.017097665 -0.0070543893 -3.7042443e-20)
(0.029856697 -0.0072939096 1.7884817e-20)
(0.043406131 -0.007442174 0)
(0.05767897 -0.0075284723 0)
(0.072610752 -0.0075557969 -2.3889568e-20)
(0.088116301 -0.0075321934 -1.7021356e-20)
(0.10411923 -0.0074675326 1.9847144e-20)
(0.12055466 -0.0073690473 1.8707973e-20)
(0.13736288 -0.0072422603 1.0393157e-21)
(0.15448763 -0.0070920309 -1.0425269e-20)
(0.17187649 -0.0069225993 8.5903456e-21)
(0.18948055 -0.0067375638 1.8259262e-20)
(0.20725378 -0.0065400048 -5.4196834e-21)
(0.22515266 -0.0063325956 -1.0072949e-20)
(0.24313598 -0.0061176688 -4.2506142e-21)
(0.26116468 -0.0058972681 -4.2598975e-21)
(0.2792017 -0.0056731954 6.9183306e-22)
(0.29721194 -0.0054470472 1.2102287e-21)
(0.3151622 -0.0052202431 2.580143e-21)
(0.33302123 -0.0049940467 6.4648175e-21)
(0.3507597 -0.0047695826 1.3193596e-22)
(0.36835026 -0.0045478485 -3.3364379e-21)
(0.38576757 -0.0043297248 1.2645957e-22)
(0.40298833 -0.0041159823 -5.5246416e-22)
(0.41999129 -0.0039072882 1.1845027e-21)
(0.43675729 -0.0037042121 9.6081309e-22)
(0.45326923 -0.003507231 -1.290327e-21)
(0.46951207 -0.0033167352 -9.7779175e-23)
(0.48547278 -0.003133033 -5.1348074e-23)
(0.50114031 -0.0029563573 -3.2670435e-22)
(0.51650556 -0.0027868717 -4.1068474e-22)
(0.53156125 -0.0026246766 9.4446937e-23)
(0.54630192 -0.0024698164 -1.2608319e-22)
(0.56072384 -0.0023222865 -1.9417377e-22)
(0.57482491 -0.0021820406 2.2074536e-22)
(0.5886047 -0.0020489983 2.4943897e-22)
(0.60206425 -0.0019230547 -3.5407654e-23)
(0.61520652 -0.0018040849 -1.6438457e-22)
(0.62803515 -0.0016919729 1.4281521e-23)
(0.64055861 -0.0015865671 -2.3143181e-23)
(0.65277814 -0.0014878959 7.8254503e-23)
(0.66472616 -0.0013955841 -2.0549371e-23)
(0.67635344 -0.0013108861 -1.3645695e-22)
(0.687869 -0.0012306156 7.4066925e-24)
(0.69875405 -0.0011668137 7.0072839e-24)
(0.71064233 -0.0010873918 -5.4808507e-24)
(0.71907388 -0.0010999457 2.5464583e-23)
(0.73661739 -0.0009299731 3.7303136e-22)
(0.025416574 -0.018016364 -1.4100321e-20)
(0.034699314 -0.019591825 -6.725328e-20)
(0.045888905 -0.020810651 -3.2793475e-20)
(0.058117906 -0.02149317 4.0778491e-20)
(0.070990975 -0.021918893 1.5472357e-20)
(0.084521614 -0.022172811 -1.9379386e-20)
(0.098677833 -0.022255914 5.2376559e-21)
(0.11337749 -0.022190362 2.6304832e-20)
(0.12855163 -0.022005535 -2.06646e-22)
(0.14414504 -0.021722208 -7.9992021e-21)
(0.16010514 -0.021355964 -1.2896418e-20)
(0.17638108 -0.020920729 -8.9011039e-21)
(0.19292501 -0.020428749 1.7938686e-20)
(0.20969182 -0.019890427 9.6483974e-21)
(0.22663857 -0.019314692 -1.6194692e-20)
(0.24372427 -0.018709329 -6.0044813e-21)
(0.26090973 -0.018081159 3.0963607e-21)
(0.27815753 -0.017436184 8.108035e-21)
(0.29543196 -0.016779713 6.9252657e-21)
(0.31269894 -0.01611647 -7.0758735e-21)
(0.32992615 -0.015450668 -3.3918412e-21)
(0.34708298 -0.014786069 1.5831714e-21)
(0.36414059 -0.014126031 6.8178289e-22)
(0.38107201 -0.01347354 1.2460161e-21)
(0.39785214 -0.012831238 2.4216953e-22)
(0.41445783 -0.012201442 -3.7640889e-22)
(0.43086788 -0.011586165 -7.4936454e-22)
(0.44706309 -0.010987129 1.0763422e-21)
(0.46302625 -0.01040578 8.7250404e-22)
(0.47874213 -0.0098433073 -2.8083328e-22)
(0.49419746 -0.009300655 5.9870738e-22)
(0.50938088 -0.0087785426 -2.2195041e-22)
(0.52428292 -0.0082774819 -4.1527459e-22)
(0.5388959 -0.0077977966 -6.2189243e-22)
(0.55321392 -0.0073396423 4.0375643e-22)
(0.56723275 -0.0069030278 -1.1940263e-22)
(0.58094979 -0.0064878373 2.258327e-22)
(0.59436405 -0.0060938521 -4.6788972e-22)
(0.60747604 -0.0057207802 4.5403601e-22)
(0.62028811 -0.0053682684 5.9709737e-23)
(0.63280333 -0.0050359902 -5.4104703e-23)
(0.64502956 -0.0047235115 2.1784675e-22)
(0.65696748 -0.004430936 2.9275063e-22)
(0.66864868 -0.0041571579 2.227612e-22)
(0.680024 -0.0039059449 2.3909335e-22)
(0.69129954 -0.0036677905 -1.6713126e-23)
(0.70196258 -0.0034786432 1.2241996e-22)
(0.71362464 -0.0032428265 1.0748925e-22)
(0.72188814 -0.0032807117 -2.052146e-22)
(0.73913061 -0.0027759296 -6.4217784e-24)
(0.084204706 -0.028836105 1.0371527e-20)
(0.091550228 -0.031477988 3.920487e-21)
(0.10164226 -0.033446975 -1.3967449e-20)
(0.11278172 -0.034495478 -1.6884321e-21)
(0.12428752 -0.035161945 1.6191827e-20)
(0.13632981 -0.035581832 -1.5663711e-20)
(0.14894806 -0.035734907 -3.1601694e-20)
(0.16206232 -0.035651616 1.5447626e-20)
(0.17561479 -0.035380078 1.9180894e-20)
(0.18956808 -0.034952474 -1.2158291e-20)
(0.20388263 -0.034391942 1.0472729e-21)
(0.21851688 -0.033719724 8.3888747e-21)
(0.23343084 -0.032954867 -1.5809574e-20)
(0.24858601 -0.032113612 3.8718355e-21)
(0.26394476 -0.031209969 7.8291179e-21)
(0.27947033 -0.030256257 -5.7732046e-22)
(0.29512695 -0.029263363 -1.0964658e-22)
(0.31087993 -0.028240946 -7.6586235e-21)
(0.32669572 -0.02719761 4.4878037e-21)
(0.34254199 -0.026141064 8.6797191e-21)
(0.35838774 -0.025078225 -3.9019088e-21)
(0.37420339 -0.024015305 -2.166739e-21)
(0.38996087 -0.022957875 8.7109121e-22)
(0.40563376 -0.021910913 -1.7806116e-21)
(0.42119728 -0.020878843 1.3050019e-21)
(0.43662845 -0.01986556 6.9021826e-22)
(0.45190609 -0.018874463 1.8275311e-21)
(0.46701083 -0.017908474 -2.1948671e-21)
(0.48192522 -0.016970063 2.489134e-21)
(0.49663362 -0.016061274 5.9486867e-22)
(0.51112226 -0.015183746 6.3588306e-22)
(0.52537919 -0.014338747 2.9916667e-22)
(0.53939425 -0.0135272 1.0316178e-21)
(0.55315898 -0.012749717 -1.5776008e-21)
(0.56666663 -0.012006629 4.4014951e-22)
(0.57991206 -0.011298022 2.3213651e-22)
(0.59289172 -0.010623774 -8.2949398e-23)
(0.60560362 -0.0099835936 7.8663241e-24)
(0.61804721 -0.0093770625 -4.0406206e-22)
(0.63022378 -0.0088036602 2.2768088e-22)
(0.64213531 -0.0082629087 -2.9240948e-23)
(0.65378851 -0.0077541477 5.5851609e-22)
(0.66518306 -0.0072776081 -2.5844405e-22)
(0.67634898 -0.0068315092 3.6448873e-23)
(0.68723723 -0.0064221347 7.7816148e-23)
(0.69804846 -0.0060338272 -9.5524644e-23)
(0.70828148 -0.0057258716 -1.6084081e-22)
(0.71950521 -0.0053409041 5.2634385e-22)
(0.72744252 -0.00540451 1.8240897e-22)
(0.7441011 -0.0045803968 -8.5483059e-22)
(0.16855264 -0.037829895 1.8557364e-21)
(0.17303759 -0.041522489 -1.1840215e-20)
(0.18129902 -0.04416204 6.5873854e-21)
(0.19073093 -0.045487347 -1.4165886e-20)
(0.20016506 -0.04636255 -2.0925721e-21)
(0.20997444 -0.046962927 1.0072734e-20)
(0.22031821 -0.047224041 -1.1049761e-20)
(0.23111549 -0.047175307 1.0685555e-21)
(0.24231657 -0.046880987 1.3425616e-20)
(0.25390703 -0.046382003 3.8768316e-21)
(0.2658643 -0.045705845 -6.3969876e-21)
(0.27815774 -0.044878437 -3.2635883e-21)
(0.29075643 -0.043923807 -5.5035404e-21)
(0.30362965 -0.042862736 -6.8264001e-21)
(0.31674589 -0.041713305 2.7270605e-21)
(0.33007316 -0.040491603 2.1770959e-22)
(0.34357947 -0.039212049 1.5959351e-21)
(0.35723311 -0.037887588 -3.3817015e-21)
(0.37100284 -0.036529883 -4.6224219e-21)
(0.3848581 -0.03514948 2.5399417e-21)
(0.39876924 -0.033755925 3.5495155e-21)
(0.41270765 -0.032357859 -1.8715192e-21)
(0.42664596 -0.030963083 1.6966768e-21)
(0.44055816 -0.029578611 -5.2588691e-22)
(0.45441968 -0.028210707 -4.3495614e-21)
(0.46820753 -0.026864924 -3.0637071e-21)
(0.48190035 -0.025546133 -3.0660251e-22)
(0.49547845 -0.024258547 2.9725149e-22)
(0.50892385 -0.023005757 -2.2048046e-21)
(0.52222031 -0.021790759 -1.0952766e-21)
(0.53535328 -0.020615992 2.1423884e-22)
(0.54830994 -0.019483373 -1.4139945e-21)
(0.56107914 -0.018394341 -7.2140332e-23)
(0.57365134 -0.017349897 -5.212412e-22)
(0.58601864 -0.016350649 -4.3495345e-22)
(0.59817465 -0.015396864 -7.1255411e-22)
(0.6101145 -0.014488514 -1.0845753e-21)
(0.62183486 -0.01362533 -6.7310363e-24)
(0.63333377 -0.012806864 -3.4428481e-24)
(0.64461107 -0.012032522 -6.2926631e-22)
(0.65566728 -0.011301764 -7.5984071e-24)
(0.66650757 -0.010613791 -4.3455048e-22)
(0.67713027 -0.0099690347 -6.4514249e-22)
(0.68756329 -0.0093651329 5.0851622e-22)
(0.69775781 -0.0088108654 1.3546876e-23)
(0.70790676 -0.0082847425 2.5172401e-22)
(0.7175256 -0.0078683257 -1.8481856e-22)
(0.72812198 -0.0073459839 -3.5679456e-22)
(0.73559252 -0.0074355381 -1.2329542e-23)
(0.75141242 -0.0063173947 4.8857066e-22)
(0.27439743 -0.044195644 -2.3208987e-20)
(0.2751123 -0.048914808 5.0264882e-20)
(0.28066452 -0.052134436 1.0783159e-20)
(0.28768061 -0.05367367 -1.6809063e-20)
(0.29433439 -0.054762482 -2.5604006e-21)
(0.30118715 -0.055592336 2.3361778e-21)
(0.30856495 -0.056037879 -2.1579591e-21)
(0.31638761 -0.056117231 -4.8964022e-21)
(0.32460223 -0.055903722 -4.1876038e-21)
(0.33321612 -0.055443673 -1.2682479e-20)
(0.34222516 -0.054766496 1.9058207e-20)
(0.35160893 -0.053900104 7.0844059e-21)
(0.36134414 -0.052871345 -1.719719e-20)
(0.37140674 -0.051704153 9.9105652e-21)
(0.38177049 -0.05041975 7.8945861e-21)
(0.39240737 -0.049037314 -3.0137135e-22)
(0.40328833 -0.047574327 -2.7542642e-21)
(0.41438389 -0.046046744 -4.3473261e-21)
(0.42566444 -0.044469148 -1.6309886e-21)
(0.43710058 -0.042854877 -1.4410857e-21)
(0.44866343 -0.041216134 -3.4243787e-21)
(0.46032486 -0.039564059 0)
(0.47205768 -0.037908787 -1.5191196e-21)
(0.48383587 -0.036259492 3.9985033e-21)
(0.49563467 -0.034624423 5.7397927e-21)
(0.50743071 -0.033010934 -9.0334217e-22)
(0.51920208 -0.031425516 -3.3537848e-21)
(0.53092845 -0.029873828 3.5357538e-21)
(0.54259104 -0.028360728 6.9881881e-24)
(0.55417266 -0.026890316 3.8350414e-21)
(0.56565777 -0.025465974 -5.0293987e-22)
(0.57703239 -0.024090414 1.8159466e-21)
(0.58828414 -0.022765728 -9.2570215e-22)
(0.59940217 -0.021493443 4.3369593e-22)
(0.61037715 -0.020274581 -5.5636308e-22)
(0.62120124 -0.019109716 5.8841216e-22)
(0.63186805 -0.017999042 5.507487e-22)
(0.64237265 -0.016942435 4.6312749e-22)
(0.65271144 -0.015939539 -1.1391392e-21)
(0.66288262 -0.0149898 8.1537293e-22)
(0.67288503 -0.014092726 -4.2718492e-22)
(0.68272205 -0.013247485 -1.4061403e-21)
(0.69239049 -0.012454801 1.7950666e-21)
(0.70191573 -0.011711845 -5.4026544e-23)
(0.71124941 -0.011029849 -2.0448093e-22)
(0.72057488 -0.010381931 -6.935884e-24)
(0.72942879 -0.0098704422 -2.0581212e-22)
(0.7392413 -0.0092262006 -6.1223863e-22)
(0.74612929 -0.0093417165 7.7166052e-22)
(0.76089536 -0.0079630108 -5.0942014e-23)
(0.39669004 -0.046979783 -1.9475713e-20)
(0.3927751 -0.052758785 1.3300596e-20)
(0.39464864 -0.056512065 3.9475495e-21)
(0.39846372 -0.058293587 -8.1789886e-21)
(0.40166612 -0.05968168 1.2809065e-20)
(0.4049111 -0.060845187 8.256538e-21)
(0.40871572 -0.061602044 -1.2920316e-20)
(0.41301755 -0.061955871 -6.3696826e-21)
(0.41774518 -0.061976256 1.3269561e-20)
(0.42291557 -0.061708655 -1.6685604e-20)
(0.42854037 -0.061183147 -1.4553691e-20)
(0.43460728 -0.060428174 1.5413744e-20)
(0.44109708 -0.059471581 7.0383773e-21)
(0.44798914 -0.058339296 -5.312739e-21)
(0.45526012 -0.057055117 -1.2898881e-21)
(0.46288389 -0.055641004 -3.5496285e-21)
(0.47083264 -0.054117353 4.7682496e-21)
(0.47907757 -0.052503127 3.6900643e-21)
(0.4875894 -0.05081593 -3.1149197e-21)
(0.49633875 -0.049072065 3.1222785e-21)
(0.50529651 -0.047286603 2.9812879e-21)
(0.51443414 -0.04547342 -3.3993054e-21)
(0.5237239 -0.043645236 3.6675682e-22)
(0.53313906 -0.041813638 -3.1806189e-21)
(0.54265405 -0.039989104 8.2697152e-21)
(0.55224459 -0.038181034 6.5793706e-21)
(0.56188778 -0.036397769 1.0742698e-21)
(0.5715622 -0.034646635 -1.8488947e-21)
(0.5812479 -0.03293397 4.3483564e-21)
(0.59092647 -0.031265178 8.1834226e-21)
(0.60058103 -0.029644775 2.4125182e-21)
(0.61019625 -0.028076448 3.7627227e-21)
(0.61975828 -0.026563114 2.1621256e-21)
(0.62925478 -0.025106993 8.6912981e-22)
(0.63867488 -0.023709674 -2.437493e-22)
(0.64800912 -0.022372193 3.1398813e-21)
(0.65724946 -0.021095108 7.0600582e-22)
(0.6663893 -0.019878577 3.223388e-22)
(0.67542333 -0.018722468 5.7133536e-23)
(0.68434799 -0.017626393 1.2387311e-21)
(0.6931604 -0.016590026 4.1856242e-23)
(0.70186207 -0.015612617 5.9168222e-22)
(0.71044824 -0.014695277 -1.2664468e-22)
(0.71894158 -0.013834837 -4.1209233e-22)
(0.72729452 -0.013044912 -2.04621e-22)
(0.73567931 -0.012293742 -5.6021356e-22)
(0.74365776 -0.011702663 2.4415536e-22)
(0.75256914 -0.010954615 -1.6486155e-22)
(0.75878901 -0.011095891 -4.4133906e-22)
(0.77233413 -0.0094960317 2.8562337e-22)
(0.52929695 -0.045263849 3.4224446e-21)
(0.52011479 -0.052147625 -1.9386758e-20)
(0.51737995 -0.056445595 -2.6153588e-21)
(0.51722346 -0.058659357 5.7262383e-21)
(0.51644972 -0.060572789 3.6471218e-21)
(0.51561809 -0.062261995 6.6806583e-22)
(0.51540438 -0.06351869 7.2910719e-21)
(0.51580632 -0.06434761 8.2132173e-21)
(0.51673137 -0.064804423 1.013729e-20)
(0.51818359 -0.064924972 -1.1929103e-20)
(0.52018001 -0.064738343 -2.308452e-20)
(0.52271346 -0.064273584 -4.5740342e-21)
(0.52576506 -0.063559106 1.6909402e-20)
(0.52931339 -0.062622439 1.347264e-20)
(0.53333468 -0.061489996 -5.7288316e-21)
(0.53780231 -0.060186821 8.5016827e-22)
(0.54268762 -0.058736592 -4.2498366e-21)
(0.54796076 -0.057161685 3.1918814e-21)
(0.55359133 -0.055483152 -2.9367979e-22)
(0.55954872 -0.053720705 -1.9810534e-21)
(0.56580252 -0.051892716 8.5791583e-21)
(0.57232285 -0.050016217 -5.1346899e-22)
(0.57908057 -0.048106909 6.2300553e-22)
(0.58604753 -0.046179165 -4.3907645e-22)
(0.5931967 -0.044246046 -4.5372825e-21)
(0.60050235 -0.042319319 4.4274453e-21)
(0.60794008 -0.040409485 1.8374654e-21)
(0.61548694 -0.038525814 -3.460459e-21)
(0.62312146 -0.036676386 -4.0770108e-21)