/*--------------------------------*- C++ -*----------------------------------*\
  =========                 |
  \\      /  F ield         | OpenFOAM: The Open Source CFD Toolbox
   \\    /   O peration     | Website:  https://openfoam.org
    \\  /    A nd           | Version:  6
     \\/     M anipulation  |
\*---------------------------------------------------------------------------*/
FoamFile
{
    version     2.0;
    format      ascii;
    class       surfaceScalarField;
    location    "246";
    object      phi;
}
// * * * * * * * * * * * * * * * * * * * * * * * * * * * * * * * * * * * * * //

dimensions      [0 3 -1 0 0 0 0];

internalField   nonuniform List<scalar> 
18180
(
0.00031872914
-0.00016315993
-0.00015556921
0.0013092105
-0.0013669154
0.00037643403
0.0030328865
-0.0033336189
0.001609943
0.0055497715
-0.0059759576
0.0034590726
0.0089181937
-0.0092390774
0.0058706553
0.013192807
-0.013079526
0.0088049128
0.018421934
-0.017459837
0.01223071
0.024644595
-0.022345795
0.016123135
0.031887357
-0.027703311
0.020460548
0.040161265
-0.033495801
0.025221893
0.049459148
-0.039682432
0.030384549
0.059753698
-0.046217201
0.03592265
0.070996705
-0.05304884
0.041805833
0.083119907
-0.060121574
0.047998372
0.096038078
-0.067376826
0.054458655
0.10965486
-0.074755986
0.061139201
0.12387079
-0.082204077
0.067988145
0.13859852
-0.08967406
0.074946333
0.15383662
-0.097148805
0.081910708
-0.10462594
0.088678861
0.1697837
0.00039749693
-0.00056065686
0.0016095942
-0.0025790126
0.0036893167
-0.0054133415
0.0066874412
-0.0089740821
0.010650648
-0.013202284
0.015617864
-0.018046742
0.021616251
-0.023458224
0.028657247
-0.029386791
0.036732931
-0.035778995
0.045813128
-0.042575997
0.05584367
-0.049712973
0.066746182
-0.057119714
0.078419637
-0.064722295
0.090743751
-0.072445688
0.10358404
-0.08021711
0.11679788
-0.087969832
0.13024075
-0.095646946
0.14377295
-0.10320626
0.15725855
-0.1106344
-0.11786187
0.17049448
0.00048062327
-0.0010412801
0.0019186976
-0.004017087
0.0043524773
-0.0078471213
0.0078165607
-0.012438165
0.01233766
-0.017723384
0.017929201
-0.023638283
0.02458624
-0.030115264
0.032281199
-0.03708175
0.040960827
-0.044458623
0.050544905
-0.052160076
0.06092705
-0.060095117
0.071977786
-0.06817045
0.083549776
-0.076294285
0.095484789
-0.084380701
0.10762167
-0.092353987
0.11980424
-0.1001524
0.13188798
-0.10773069
0.14374347
-0.11506174
0.15524869
-0.12213963
-0.12891427
0.16630109
0.00056616951
-0.0016074496
0.0022279417
-0.0056788592
0.0050006096
-0.010619789
0.0088940078
-0.016331564
0.013905253
-0.02273463
0.020011875
-0.029744905
0.02716648
-0.037269868
0.035293407
-0.045208677
0.044287845
-0.053453062
0.054017763
-0.061889994
0.064328705
-0.070406059
0.075051115
-0.07889286
0.086009509
-0.087252679
0.097032483
-0.095403675
0.10796245
-0.10328395
0.11866395
-0.1108539
0.12902964
-0.11809639
0.13898296
-0.12501506
0.14847491
-0.13163158
-0.13794518
0.15750582
0.00065088606
-0.0022583357
0.002524341
-0.0075523141
0.005603633
-0.013699081
0.0098644623
-0.020592393
0.015264607
-0.028134775
0.021736405
-0.036216702
0.029182475
-0.044715938
0.037474886
-0.053501088
0.046457993
-0.062436169
0.055954827
-0.071386828
0.065776421
-0.080227653
0.075733002
-0.088849441
0.085645708
-0.097165384
0.095357387
-0.10511535
0.1047412
-0.11266777
0.11370619
-0.11981888
0.12219936
-0.12658956
0.13020457
-0.13302027
0.137738
-0.13916502
-0.14506756
0.14486038
0.00073063565
-0.0029889714
0.0027920856
-0.009613764
0.0061265729
-0.017033569
0.01066671
-0.02513253
0.016322647
-0.033790712
0.022975239
-0.042869294
0.030474423
-0.052215122
0.038642391
-0.061669056
0.04728118
-0.071074957
0.056183725
-0.080289373
0.065146878
-0.089190806
0.073984591
-0.097687154
0.082539476
-0.10572027
0.090691295
-0.11326717
0.098361451
-0.12033793
0.1055133
-0.12697073
0.11214879
-0.13322506
0.1183024
-0.13917388
0.12403363
-0.14489624
-0.15046328
0.12942935
0.00080073101
-0.0037897024
0.0030139154
-0.011826948
0.0065328929
-0.020552546
0.011240049
-0.029839686
0.016992694
-0.039543356
0.023618541
-0.049495141
0.03091821
-0.059514792
0.038673312
-0.069424158
0.046658767
-0.079060412
0.054657391
-0.088287998
0.062474453
-0.097007868
0.069949951
-0.10516265
0.076966961
-0.11273728
0.0834551
-0.11975531
0.089389112
-0.12627194
0.094783318
-0.13236494
0.099683311
-0.13812505
0.1041565
-0.14364707
0.10828311
-0.14902285
-0.15433355
0.11215338
0.00085605853
-0.0046457609
0.00317206
-0.01414295
0.0067872245
-0.02416771
0.0115298
-0.034582262
0.017203431
-0.045216987
0.023586545
-0.055878255
0.030439871
-0.066368118
0.037519324
-0.076503612
0.044591795
-0.086132883
0.051451001
-0.095147204
0.05793063
-0.1034875
0.063912776
-0.1111448
0.069330645
-0.11815515
0.074165696
-0.12459036
0.07844026
-0.1305465
0.082207342
-0.13613202
0.085539509
-0.14145722
0.08851857
-0.14662613
0.091227368
-0.15173165
-0.15685204
0.093745854
0.00089026219
-0.0055360231
0.0032482826
-0.01650097
0.0068576209
-0.027777049
0.011492462
-0.039217103
0.016906807
-0.050631331
0.022838892
-0.06181034
0.029023667
-0.072552893
0.035209248
-0.082689193
0.041173927
-0.092097562
0.046740396
-0.10071367
0.051784657
-0.10853176
0.056238409
-0.11559855
0.060085142
-0.12200188
0.063351252
-0.12785647
0.06609422
-0.13328947
0.068390063
-0.13842786
0.070321932
-0.14338909
0.071971246
-0.14827545
0.073411936
-0.15317234
-0.15814769
0.074707589
0.00089981808
-0.0064358412
0.00323338
-0.018834532
0.006729163
-0.031272832
0.011111175
-0.043599115
0.016092483
-0.05561264
0.021384621
-0.067102478
0.026713883
-0.077882155
0.031839115
-0.087814425
0.036567086
-0.096825532
0.040762273
-0.10490886
0.044349476
-0.11211896
0.047309352
-0.11855843
0.04966841
-0.12436094
0.051485819
-0.12967388
0.052839531
-0.13464318
0.053813826
-0.13940216
0.054489718
-0.14406498
0.054938827
-0.14872456
0.055220555
-0.15345407
0.05538099
-0.15830813
-0.00020237819
0.00020237819
-4.7920745e-13
-0.00067774622
0.00047536802
-2.5051592e-13
-0.0013424253
0.00066467906
7.181829e-14
-0.0021322933
0.00078986807
2.5630329e-13
-0.002995772
0.00086347863
3.5762261e-13
-0.0038907389
0.00089496689
3.4795504e-13
-0.0047822941
0.0008915552
3.7356435e-13
-0.005640891
0.0008585969
3.0958908e-13
-0.0064408658
0.00079997481
3.0259449e-13
-0.0071592866
0.0007184208
1.8748286e-13
-0.0077750349
0.00061574837
1.4796798e-13
-0.0082680707
0.00049303575
-1.3171157e-14
-0.0086188522
0.00035078148
-8.46508e-14
-0.0088079029
0.00018905078
-2.870981e-13
-0.0088155566
7.6536053e-06
-4.3166107e-13
-0.0086219803
-0.00019357622
-6.9580828e-13
-0.0082074392
-0.00041454116
-8.3990709e-13
-0.0075518902
-0.00065554892
-1.1902476e-12
-0.0066345773
-0.00091731292
-1.457203e-12
-0.0011862296
-0.0054483478
-1.9256954e-12
-0.00018797442
0.00039035261
-0.00062500687
0.00091240048
-0.001228753
0.0012684251
-0.0019351941
0.0014963092
-0.0026921387
0.0016204233
-0.0034562835
0.0016591116
-0.0041910665
0.0016263382
-0.0048648582
0.0015323886
-0.0054495234
0.00138464
-0.0059192864
0.0011881838
-0.0062498153
0.00094627727
-0.0064174804
0.00066070089
-0.0063987495
0.00033205054
-0.0061697084
-3.9990353e-05
-0.0057057362
-0.0004563186
-0.0049814249
-0.00091788745
-0.0039707956
-0.0014251705
-0.0026472187
-0.0019791258
-0.0009832645
-0.0025812671
-0.0032017787
0.0010322846
-0.00015892782
0.00054928043
-0.00051889134
0.001272364
-0.0010007698
0.0017503036
-0.0015412592
0.0020367985
-0.0020873496
0.0021665137
-0.0025937349
0.002165497
-0.0030208681
0.0020534714
-0.0033332936
0.0018448141
-0.0034983024
0.0015496488
-0.0034848554
0.0011747368
-0.0032626998
0.00072412173
-0.0028016494
0.0001996505
-0.0020709506
-0.00039864828
-0.0010387686
-0.0010721723
0.0003282417
-0.0018233289
0.0020652127
-0.0026548585
0.0042090234
-0.0035689812
0.0067979936
-0.0045680959
0.0098718145
-0.0056550881
-0.0067797307
0.013449767
-0.00011756693
0.00066684736
-0.00036699847
0.0015217955
-0.00067351353
0.0020568187
-0.00097482551
0.0023381105
-0.0012168539
0.0024085421
-0.0013515942
0.0023002373
-0.0013354601
0.0020373373
-0.0011278293
0.0016371833
-0.00068984661
0.0011116661
1.6528195e-05
0.00046836195
0.0010293043
-0.00028865438
0.0023871069
-0.0011581521
0.0041297225
-0.0021412639
0.0062985804
-0.0032410301
0.0089372585
-0.0044620071
0.012092041
-0.0058096406
0.015812291
-0.0072892312
0.020150152
-0.0089059571
0.025160335
-0.010665271
-0.012492605
0.030873209
-6.690763e-05
0.00073375499
-0.0001791665
0.0016340544
-0.00026653385
0.002144186
-0.0002676916
0.0023392683
-0.00012719458
0.0022680451
0.00020616628
0.0019668764
0.00078069248
0.0014628111
0.0016429474
0.0007749284
0.002838726
-8.4112581e-05
0.0044138407
-0.0011067527
0.0064146848
-0.0022894984
0.0088886488
-0.0036321162
0.011884446
-0.0051370614
0.015452443
-0.006809027
0.019645032
-0.0086545957
0.024517251
-0.01068186
0.030127665
-0.012899645
0.036538871
-0.015317163
0.043818267
-0.017944667
-0.020682519
0.052008181
-9.9846366e-06
0.00074373962
3.4534917e-05
0.0015895349
0.00019989
0.001978831
0.00054676537
0.0019923929
0.0011322464
0.001682564
0.0020109799
0.0010881429
0.0032361381
0.000237653
0.0048603014
-0.00084923489
0.0069361163
-0.0021599276
0.0095166698
-0.0036873062
0.012655697
-0.0054285259
0.016407688
-0.0073841065
0.02082781
-0.0095571834
0.025971751
-0.011952968
0.031895619
-0.014578464
0.038656243
-0.017442484
0.046312354
-0.020555757
0.054926653
-0.023931462
0.064569634
-0.027587648
-0.031405569
0.075292683
5.0751271e-05
0.00069298835
0.00026565759
0.0013746285
0.00070825396
0.0015362346
0.0014390295
0.0012616174
0.0025168189
0.00060477462
0.0039995642
-0.00039460235
0.0059449111
-0.0017076939
0.0084105982
-0.003314922
0.011454587
-0.0052039167
0.015135032
-0.0073677509
0.01951001
-0.009803504
0.024636996
-0.012511092
0.030572124
-0.015492312
0.037369293
-0.018750137
0.045079231
-0.022288402
0.05374895
-0.026112203
0.06342256
-0.030229366
0.07414466
-0.034653562
0.085969284
-0.039412272
-0.044388472
0.098952187
0.00011379624
0.00057919211
0.00050850315
0.00097992163
0.0012459817
0.00079875603
0.0023867764
0.00012082267
0.0039912388
-0.0009996878
0.0061198728
-0.0025232364
0.0088333152
-0.0044211363
0.012192159
-0.0066737658
0.016256548
-0.0092683061
0.021085434
-0.012196636
0.026735533
-0.015453603
0.033260004
-0.019035564
0.040706862
-0.022939169
0.049117165
-0.02716044
0.058523122
-0.03169436
0.068946469
-0.036535549
0.080398283
-0.041681181
0.092882106
-0.047137384
0.10640544
-0.052935604
-0.058995635
0.1210126
0.00017849574
0.00040069638
0.00076002956
0.00039838781
0.0018053381
-0.00024655253
0.0033747122
-0.0014485514
0.005528993
-0.0031539686
0.0083293156
-0.005323559
0.011836485
-0.0079283053
0.016110051
-0.010947332
0.021207033
-0.014365288
0.027180291
-0.018169894
0.034076603
-0.022349914
0.041934459
-0.026893421
0.050781639
-0.031786349
0.060632568
-0.037011369
0.07148547
-0.042547261
0.083319357
-0.048369436
0.096091824
-0.054453647
0.10974038
-0.060785945
0.12419596
-0.067391176
-0.074274582
0.1394749
0.00024512716
0.001019949
0.0023833395
0.0043938606
0.0071105473
0.010591901
0.014894306
0.020070108
0.026165368
0.033217367
0.041252001
0.050281231
0.060300716
0.071287719
0.083199113
0.095968878
0.10950338
0.12366376
0.1381833
0.15258757
-0.0035077236
-0.0019406242
-2.632791e-12
-0.0012859401
-0.0022217835
-2.4199204e-12
0.0011946675
-0.0024806076
-2.1735303e-12
0.0038772001
-0.0026825326
-2.1863117e-12
0.006734854
-0.0028576539
-3.1488967e-12
0.0097503232
-0.0030154692
-3.0121629e-12
0.012904673
-0.0031543499
-3.5098807e-12
0.016179881
-0.0032752079
-3.6131022e-12
0.019560245
-0.0033803645
-4.0387859e-12
0.023031548
-0.0034713022
-4.8632506e-12
0.026580501
-0.0035489534
-5.8649864e-12
0.030194681
-0.0036141797
-6.8579621e-12
0.033862444
-0.0036677629
-7.5473385e-12
0.037572793
-0.0037103497
-7.7656189e-12
0.041315278
-0.003742485
-7.236506e-12
0.045079927
-0.0037646483
-5.8677411e-12
0.048857198
-0.0037772709
-3.4784878e-12
0.052637947
-0.0037807494
-1.0252876e-13
0.056413407
-0.0037754602
4.3492841e-12
0.060175178
-0.0037617713
9.7026322e-12
0.063915229
-0.0037400504
1.5839153e-11
0.067625901
-0.0037106718
2.2265019e-11
0.071299921
-0.00367402
2.8503371e-11
0.074930412
-0.0036304919
3.3744264e-11
0.078510909
-0.0035804968
3.7366033e-11
0.082035365
-0.0035244556
3.8623539e-11
0.085498163
-0.0034627986
3.718267e-11
0.088894125
-0.003395962
3.271072e-11
0.09221851
-0.003324385
2.5367725e-11
0.095467016
-0.0032485056
1.5294148e-11
0.098635774
-0.0031687581
3.105397e-12
0.10172134
-0.0030855685
-1.0698007e-11
0.1047207
-0.0029993526
-2.519923e-11
0.10763121
-0.0029105136
-3.9663889e-11
0.11045065
-0.0028194409
-5.2917966e-11
0.11317716
-0.00272651
-6.3904312e-11
0.11580924
-0.0026320836
-7.1083723e-11
0.11834576
-0.0025365136
-7.3072488e-11
0.12078591
-0.002440149
-6.8221082e-11
0.12312924
-0.0023433361
-5.5345691e-11
0.1253757
-0.0022464609
-3.3499892e-11
0.12752558
-0.0021498744
-2.7103322e-12
0.12957984
-0.0020542661
3.5896476e-11
0.13153947
-0.0019596247
7.9245199e-11
0.13340854
-0.0018690707
1.2186643e-10
0.13518556
-0.0017770255
1.5617025e-10
0.13689499
-0.0017094268
1.7181311e-10
0.13849268
-0.0015976845
1.6039862e-10
0.14017943
-0.0016867519
1.149052e-10
-0.0013309464
-1.0694877e-11
0.0028528958
-0.0037612353
0.0049500376
-0.0043189253
0.0072928913
-0.0048234613
0.0098190149
-0.0052086562
0.012507347
-0.0055459862
0.015345563
-0.0058536848
0.018316921
-0.0061257077
0.021405014
-0.0063633015
0.024595825
-0.0065711748
0.027876589
-0.0067520667
0.031235176
-0.0069075402
0.034660104
-0.0070391076
0.038140516
-0.0071481749
0.041666065
-0.0072358993
0.045226835
-0.0073032544
0.04881329
-0.007351104
0.052416253
-0.0073802337
0.056026878
-0.0073913744
0.059636646
-0.0073852277
0.063237362
-0.0073624877
0.066821167
-0.0073238559
0.070380548
-0.007270052
0.073908349
-0.0072018212
0.077397793
-0.0071199362
0.080842494
-0.0070251979
0.084236471
-0.0069184318
0.087574155
-0.0068004834
0.090850405
-0.0066722121
0.094060504
-0.0065344838
0.097200162
-0.0063881635
0.10026551
-0.0062341086
0.10325311
-0.0060731619
0.1061599
-0.0059061459
0.10898324
-0.0057338592
0.11172088
-0.0055570735
0.1143709
-0.0053765336
0.11693178
-0.0051929594
0.11940231
-0.0050070506
0.12178167
-0.0048195019
0.12406933
-0.0046310023
0.1262652
-0.0044423228
0.12836948
-0.0042541637
0.13038312
-0.0040679016
0.13230701
-0.0038835178
0.13414516
-0.0037072206
0.13589609
-0.0035279526
0.13758377
-0.0033971119
0.13916512
-0.0031790268
0.14083572
-0.0033573565
-0.0026594387
0.015021099
-0.0053325673
0.016852194
-0.0061500203
0.018905725
-0.0068769925
0.021111764
-0.0074146954
0.023458677
-0.0078928991
0.02594281
-0.0083378185
0.028551547
-0.0087344438
0.031271405
-0.0090831599
0.034091285
-0.009391055
0.037000957
-0.0096617387
0.0399903
-0.0098968832
0.043049454
-0.010098261
0.046168893
-0.010267614
0.049339363
-0.010406369
0.052551833
-0.010515725
0.055797493
-0.010596764
0.059067752
-0.010650493
0.062354248
-0.01067787
0.065648859
-0.010679838
0.068943718
-0.010657347
0.072231239
-0.010611377
0.075504133
-0.010542946
0.078755436
-0.010453124
0.081978525
-0.010343025
0.085167143
-0.010213816
0.088315411
-0.0100667
0.091417844
-0.0099029165
0.09446936
-0.0097237282
0.097465284
-0.0095304078
0.10040135
-0.0093242314
0.10327371
-0.0091064623
0.10607889
-0.0088783454
0.10881384
-0.0086410968
0.11147588
-0.0083958979
0.1140627
-0.0081438919
0.11657235
-0.0078861829
0.11900323
-0.0076238404
0.12135408
-0.007357905
0.12362399
-0.0070894115
0.12581238
-0.0068193888
0.12791904
-0.0065489892
0.12994414
-0.0062792619
0.1318885
-0.0060122643
0.13375297
-0.0057479857
0.13554139
-0.0054956393
0.13725237
-0.0052389343
0.13890893
-0.0050536708
0.1404703
-0.0047403943
0.14212146
-0.0050085216
-0.0039961683
0.032056495
-0.0065158533
0.033471686
-0.0075652118
0.035077184
-0.00848249
0.036800011
-0.0091375225
0.038640853
-0.0097337413
0.040606008
-0.010302973
0.042688303
-0.010816739
0.044878216
-0.011273073
0.04716817
-0.011681009
0.049550938
-0.012044506
0.052018811
-0.012364756
0.054563833
-0.012643283
0.057177994
-0.012881775
0.05985325
-0.013081625
0.06258154
-0.013244015
0.065354819
-0.013370043
0.068165105
-0.01346078
0.071004523
-0.013517288
0.073865337
-0.013540653
0.076739997
-0.013532007
0.07962117
-0.013492549
0.082501776
-0.013423552
0.085375019
-0.013326367
0.088234419
-0.013202425
0.091073829
-0.013053226
0.093887462
-0.012880333
0.096669904
-0.012685359
0.099416125
-0.012469949
0.10212149
-0.012235769
0.10478174
-0.011984488
0.10739304
-0.011717761
0.10995192
-0.011437223
0.11245529
-0.011144469
0.11490044
-0.010841052
0.11728503
-0.010528477
0.11960705
-0.010208199
0.12186484
-0.0098816287
0.12405707
-0.009550142
0.12618277
-0.0092151086
0.12824128
-0.0088778952
0.13023232
-0.0085400326
0.13215598
-0.0082029202
0.134013
-0.0078692872
0.13580417
-0.0075391558
0.13753315
-0.0072246206
0.13919874
-0.0069045245
0.14082258
-0.0066775068
0.14236737
-0.0062851822
0.14400282
-0.0066439771
-0.005357029
0.052648468
-0.00715614
0.053489047
-0.0084057911
0.054483154
-0.0094765965
0.0555651
-0.010219468
0.056749702
-0.010918344
0.058051254
-0.011604525
0.059468268
-0.012233752
0.060995874
-0.012800679
0.062629862
-0.013314998
0.064365635
-0.013780279
0.066197672
-0.014196793
0.068119703
-0.014565314
0.070124963
-0.014887035
0.072206352
-0.015163014
0.07435652
-0.015394183
0.076567957
-0.015581479
0.078833068
-0.015725891
0.081144261
-0.01582848
0.083494006
-0.015890398
0.085874901
-0.015912902
0.088279718
-0.015897367
0.090701457
-0.015845291
0.093133378
-0.015758287
0.095569037
-0.015638084
0.098002322
-0.015486511
0.10042746
-0.015305475
0.10283906
-0.015096958
0.10523209
-0.014862981
0.10760192
-0.014605597
0.1099443
-0.014326862
0.11225536
-0.01402882
0.11453162
-0.013713485
0.11676998
-0.013382831
0.1189677
-0.013038777
0.12112241
-0.012683183
0.12323207
-0.012317854
0.12529497
-0.011944536
0.12730977
-0.011564941
0.12927544
-0.011180772
0.13119127
-0.010793733
0.13305698
-0.010405736
0.13487259
-0.010018531
0.13663881
-0.0096355139
0.13835643
-0.0092567693
0.14002893
-0.008897119
0.1416554
-0.0085310028
0.14325582
-0.0082779264
0.14479732
-0.0078266764
0.14643069
-0.0082773537
-0.0067652599
0.075221659
-0.0070851159
0.07532661
-0.0085107422
0.075550967
-0.0097009538
0.075851247
-0.010519748
0.076255483
-0.01132258
0.076780529
-0.012129571
0.07742942
-0.012882643
0.078202086
-0.013573345
0.079096835
-0.014209747
0.08011052
-0.014793963
0.081238895
-0.015325169
0.082476666
-0.015803085
0.083817649
-0.016228017
0.085255062
-0.016600427
0.08678173
-0.016920851
0.0883902
-0.017189949
0.090072853
-0.017408544
0.091822011
-0.017577638
0.093630029
-0.017698417
0.095489371
-0.017772244
0.09739267
-0.017800666
0.099332783
-0.017785404
0.10130284
-0.017728346
0.10329628
-0.017631526
0.10530688
-0.017497112
0.10732879
-0.017327376
0.1093565
-0.017124677
0.11138495
-0.016891429
0.11340944
-0.016630081
0.11542566
-0.016343089
0.11742974
-0.016032894
0.11941816
-0.015701902
0.12138779
-0.015352469
0.12333591
-0.014986888
0.12526011
-0.014607383
0.12715836
-0.014216109
0.12902898
-0.013815161
0.13087063
-0.013406585
0.13268229
-0.012992429
0.13446329
-0.012574738
0.13621336
-0.012155808
0.13793259
-0.011737754
0.1396217
-0.011324624
0.14128154
-0.01091661
0.1429155
-0.01053108
0.1445231
-0.0101386
0.14612244
-0.0098772747
0.14768583
-0.0093900651
0.14934271
-0.0099342343
-0.008252974
0.098025186
-0.0061581143
0.097257904
-0.0077434611
0.096581605
-0.0090246546
0.09599716
-0.009935302
0.095540696
-0.010866116
0.095223446
-0.011812321
0.095050777
-0.012709975
0.095026692
-0.01354926
0.095150723
-0.014333779
0.095419606
-0.015062846
0.09582898
-0.015734543
0.096373435
-0.016347541
0.097046486
-0.016901069
0.097840901
-0.017394842
0.098748996
-0.017828946
0.099762799
-0.018203752
0.10087417
-0.018519919
0.10207494
-0.018778401
0.10335696
-0.01898044
0.10471225
-0.019127537
0.10613303
-0.019221445
0.10761178
-0.019264148
0.10914128
-0.019257847
0.11071467
-0.019204922
0.11232548
-0.019107921
0.11396762
-0.018969518
0.11563543
-0.018792484
0.11732367
-0.018579664
0.11902752
-0.018333936
0.12074262
-0.018058183
0.12246499
-0.017755274
0.12419112
-0.01742803
0.12591787
-0.017079214
0.12764249
-0.016711514
0.12936265
-0.016327538
0.13107635
-0.01592981
0.13278197
-0.015520786
0.13447826
-0.015102868
0.13616429
-0.014678457
0.1378395
-0.014249955
0.13950375
-0.013820057
0.14115725
-0.013391252
0.14280087
-0.012968241
0.14443562
-0.01255136
0.14606488
-0.012160347
0.14768873
-0.011762444
0.14932337
-0.011511917
0.15094673
-0.011013425
0.1526657
-0.011653208
-0.0098619309
0.11918895
-0.0043344667
0.11749635
-0.0060508531
0.11585682
-0.0073851322
0.11435429
-0.0084327685
0.11302498
-0.0095368098
0.11186641
-0.010653752
0.11088405
-0.011727609
0.11008417
-0.01274938
0.10946618
-0.013715794
0.1090255
-0.014622162
0.10875631
-0.015465349
0.10865194
-0.016243175
0.10870481
-0.016953935
0.1089066
-0.017596631
0.10924858
-0.018170931
0.10972182
-0.018676993
0.11031729
-0.019115387
0.11102598
-0.019487091
0.11183901
-0.019793467
0.11274769
-0.020036221
0.11374362
-0.020217379
0.11481873
-0.020339252
0.11596529
-0.020404413
0.11717603
-0.020415654
0.11844406
-0.020375958
0.119763
-0.020288457
0.12112692
-0.020156397
0.12253035
-0.019983097
0.12396833
-0.019771915
0.12543636
-0.019526215
0.12693041
-0.019249329
0.12844692
-0.01894454
0.12998277
-0.018615056
0.13153525
-0.018263993
0.13310208
-0.017894376
0.1346814
-0.017509129
0.13627171
-0.017111097
0.13787191
-0.016703062
0.13948126
-0.016287803
0.1410994
-0.015868103
0.14272642
-0.015447072
0.14436276
-0.015027595
0.14600955
-0.014615027
0.14766808
-0.014209893
0.14934185
-0.01383412
0.15103159
-0.013452183
0.15275168
-0.013232002
0.15448591
-0.012747657
0.1563185
-0.013485801
-0.011643478
0.13689593
-0.0017554948
0.13437797
-0.0035328902
0.1318194
-0.0048265613
0.12946233
-0.0060756999
0.12733397
-0.0074084509
0.1254157
-0.0087354768
0.12371033
-0.010022249
0.12222298
-0.011262021
0.12095207
-0.012444888
0.11989185
-0.013561937
0.11903479
-0.014608298
0.11837257
-0.015580951
0.11789618
-0.016477543
0.11759609
-0.017296543
0.11746244
-0.018037281
0.11748521
-0.018699768
0.1176544
-0.01928457
0.11796007
-0.019792763
0.1183925
-0.020225896
0.11894223
-0.020585951
0.11960014
-0.020875289
0.1203575
-0.021096619
0.12120604
-0.021252952
0.12213795
-0.021347557
0.12314591
-0.021383921
0.12422315
-0.021365702
0.12536343
-0.021296678
0.12656105
-0.021180713
0.12781084
-0.021021706
0.12910818
-0.020823554
0.13044897
-0.020590117
0.13182962
-0.020325188
0.13324703
-0.020032471
0.1346986
-0.01971556
0.13618216
-0.019377936
0.137696
-0.019022968
0.13923883
-0.018653929
0.14080978
-0.018274011
0.14240838
-0.017886408
0.14403459
-0.017494313
0.1456888
-0.017101277
0.14737181
-0.016710607
0.14908511
-0.016328324
0.1508304
-0.015955183
0.15261141
-0.015615131
0.15442964
-0.015270413
0.15629774
-0.015100103
0.15820552
-0.014655434
0.16021492
-0.015495207
-0.013657657
0.15005207
0.00078000704
0.14676313
-0.00024394401
0.14346579
-0.0015292222
0.14041801
-0.0030279205
0.13762311
-0.0046135566
0.13507485
-0.0061872118
0.13277505
-0.0077224487
0.1307238
-0.0092107704
0.12891866
-0.010639748
0.12735443
-0.011997705
0.12602328
-0.01327715
0.12491581
-0.01447348
0.12402184
-0.015583573
0.12333071
-0.016605414
0.12283144
-0.017538011
0.12251292
-0.018381245
0.12236407
-0.019135721
0.12237398
-0.019802674
0.12253199
-0.02038391
0.12282779
-0.020881746
0.12325145
-0.021298954
0.12379355
-0.02163871
0.12444513
-0.021904539
0.12519784
-0.022100265
0.12604387
-0.022229954
0.12697604
-0.022297863
0.12798774
-0.022308386
0.12907303
-0.022266
0.13022654
-0.022175218
0.13144353
-0.022040543
0.13271984
-0.021866429
0.1340519
-0.021657243
0.13543667
-0.021417244
0.13687167
-0.021150562
0.13835493
-0.02086119
0.13988495
-0.020552987
0.14146071
-0.020229696
0.14308167
-0.019894971
0.14474772
-0.019552451
0.14645918
-0.019205773
0.14821687
-0.018858967
0.15002204
-0.018515781
0.15187665
-0.01818293
0.15378287
-0.017861405
0.15574483
-0.017577094
0.15776472
-0.017290303
0.15985407
-0.01718945
0.16200712
-0.016808482
0.1642686
-0.017756692
-0.015969434
0.18890875
0.0053821101
-0.19351085
0.18509871
0.0035660949
0.18170668
0.0018628134
0.17856155
0.00011720644
0.17562599
-0.0016779961
0.17287496
-0.0034361851
0.17029025
-0.0051377313
0.16786284
-0.0067833691
0.16558888
-0.0083657816
0.16346619
-0.009875019
0.16149293
-0.011303883
0.15966697
-0.012647522
0.15798567
-0.013902282
0.15644576
-0.015065497
0.1550433
-0.016135548
0.15377382
-0.017111767
0.1526324
-0.017994302
0.15161374
-0.018784019
0.15071228
-0.019482442
0.14992222
-0.020091688
0.14923767
-0.020614408
0.14865268
-0.021053724
0.14816132
-0.02141317
0.14775768
-0.021696633
0.14743602
-0.021908289
0.1471907
-0.022052547
0.1470163
-0.022133987
0.1469076
-0.0221573
0.14685962
-0.022127238
0.14686764
-0.022048557
0.14692719
-0.021925979
0.14703409
-0.021764148
0.14718446
-0.021567606
0.14737466
-0.021340766
0.14760138
-0.021087907
0.14786156
-0.020813173
0.14815246
-0.020520594
0.1484716
-0.020214108
0.14881679
-0.019897649
0.14918617
-0.019575147
0.14957816
-0.019250961
0.14999154
-0.018929154
0.15042552
-0.018616916
0.15087959
-0.018315477
0.15135437
-0.01805187
0.1518497
-0.017785632
0.15237006
-0.017709808
0.15291114
-0.017349565
0.1534959
-0.018341458
-0.016561997
0.21685764
0.0087804431
-0.22025598
0.21338375
0.0070399842
0.21017094
0.0050756277
0.20706562
0.0032225217
0.20401903
0.001368602
0.2010621
-0.00047926221
0.19821174
-0.0022873668
0.19547244
-0.0040440756
0.19285012
-0.0057434595
0.1903516
-0.0073765
0.18798209
-0.0089343664
0.18574497
-0.010410405
0.18364225
-0.01179956
0.18167462
-0.01309787
0.17984155
-0.014302479
0.17814142
-0.015411631
0.17657167
-0.016424553
0.17512899
-0.017341341
0.17380943
-0.018162884
0.17260854
-0.018890795
0.17152147
-0.019527334
0.17054308
-0.020075338
0.16966806
-0.020538149
0.16889097
-0.020919543
0.16820634
-0.021223663
0.16760874
-0.021454943
0.1670928
-0.021618047
0.16665329
-0.021717795
0.16628516
-0.021759107
0.16598355
-0.021746942
0.16574381
-0.021686248
0.16556158
-0.021581916
0.16543273
-0.02143875
0.1653534
-0.021261436
0.16532002
-0.021054534
0.16532932
-0.020822473
0.1653783
-0.020569573
0.16546426
-0.020300067
0.1655848
-0.020018189
0.16573784
-0.019728183
0.16592161
-0.019434736
0.16613473
-0.019142271
0.16637618
-0.018858369
0.16664547
-0.018584769
0.16694245
-0.018348847
0.16726834
-0.018111525
0.16762237
-0.018063835
0.16801284
-0.017740031
0.16842169
-0.018750311
-0.017035756
0.24376657
0.011504398
-0.24649052
0.24091613
0.0098904237
0.23806291
0.0079288399
0.23521595
0.0060694858
0.23233815
0.004246407
0.22945032
0.0024085603
0.2265837
0.00057925308
0.22375758
-0.001217955
0.22098788
-0.0029737558
0.21829053
-0.0046791492
0.21567939
-0.0063232268
0.21316546
-0.0078964762
0.21075735
-0.0093914524
0.20846162
-0.010802142
0.20628291
-0.012123764
0.20422409
-0.01335281
0.20228651
-0.01448698
0.20047023
-0.015525056
0.19877415
-0.016466804
0.19719624
-0.017312888
0.19573369
-0.018064786
0.19438305
-0.018724699
0.19314038
-0.01929547
0.19200133
-0.019780497
0.19096132
-0.020183651
0.19001557
-0.020509193
0.18915922
-0.020761695
0.18838738
-0.020945961
0.18769523
-0.02106696
0.18707804
-0.02112975
0.18653122
-0.021139427
0.18605037
-0.021101066
0.18563131
-0.021019684
0.18527008
-0.020900207
0.18496299
-0.020747451
0.18470664
-0.020566115
0.18449787
-0.020360803
0.18433384
-0.020136043
0.18421202
-0.019896372
0.1841302
-0.019646356
0.18408647
-0.019391013
0.18407936
-0.019135162
0.18410768
-0.018886685
0.18417101
-0.018648098
0.18426845
-0.018446284
0.18440271
-0.018245785
0.18456739
-0.018228518
0.18478439
-0.017957026
0.18498979
-0.018955711
-0.017368256
0.26927434
0.013537352
-0.27130729
0.26710629
0.012058469
0.26476453
0.010270602
0.2623253
0.0085087129
0.25979655
0.0067751588
0.25718845
0.0050166571
0.25452713
0.0032405727
0.25183676
0.0014724148
0.24913734
-0.00027433336
0.24644867
-0.0019904792
0.24379004
-0.0036645992
0.2411786
-0.0052850265
0.23862905
-0.0068419073
0.2361539
-0.0083269908
0.23376344
-0.0097333012
0.23146582
-0.011055197
0.22926724
-0.0122884
0.22717209
-0.013429905
0.22518317
-0.014477882
0.22330187
-0.015431589
0.22152837
-0.016291285
0.2198618
-0.017058128
0.21830042
-0.017734087
0.21684176
-0.018321838
0.21548278
-0.018824675
0.21422
-0.01924641
0.21304959
-0.019591283
0.2119675
-0.019863873
0.21096955
-0.020069012
0.21005151
-0.020211709
0.20920916
-0.020297076
0.20843836
-0.020330268
0.20773511
-0.02031643
0.20709556
-0.020260659
0.20651609
-0.020167977
0.20599329
-0.020043319
0.20552403
-0.019891545
0.20510545
-0.019717462
0.20473498
-0.019525903
0.20441038
-0.019321756
0.20412973
-0.01911036
0.20389153
-0.018896959
0.20369451
-0.018689661
0.20353836
-0.018491953
0.20342162
-0.01832954
0.20334818
-0.018172352
0.20330688
-0.018187215
0.20333092
-0.01798107
0.20331511
-0.018939896
-0.017537318
0.29298511
0.014868493
-0.29431625
0.29150587
0.013537712
0.28978338
0.011993096
0.28788474
0.010407348
0.28584483
0.0088150703
0.28367446
0.00718703
0.28139203
0.0055229956
0.2790208
0.0038436449
0.27658207
0.0021644012
0.27409599
0.00049559799
0.27158277
-0.0011513802
0.26906214
-0.00276439
0.26655241
-0.0043321768
0.26407017
-0.005844758
0.26163018
-0.0072933053
0.25924518
-0.0086702026
0.25692595
-0.0099691677
0.2546813
-0.011185253
0.25251821
-0.012314791
0.25044195
-0.013355335
0.24845626
-0.014305588
0.24656345
-0.015165318
0.24476463
-0.015935265
0.24305983
-0.016617045
0.2414482
-0.017213044
0.23992811
-0.017726322
0.23849734
-0.018160508
0.23715316
-0.018519697
0.23589251
-0.018808363
0.23471206
-0.019031261
0.23360834
-0.019193349
0.23257778
-0.01929971
0.23161685
-0.019355497
0.23072206
-0.019365875
0.22989007
-0.01933599
0.2291177
-0.019270948
0.22840197
-0.019175817
0.22774016
-0.01905565
0.22712981
-0.01891555
0.22656877
-0.018760715
0.2260552
-0.01859679
0.22558769
-0.018429446
0.22516499
-0.018266966
0.22478696
-0.018113917
0.22445175
-0.017994332
0.22416411
-0.017884718
0.22390922
-0.01793232
0.22372861
-0.017800462
0.22348345
-0.018694736