/*--------------------------------*- C++ -*----------------------------------*\
  =========                 |
  \\      /  F ield         | OpenFOAM: The Open Source CFD Toolbox
   \\    /   O peration     | Website:  https://openfoam.org
    \\  /    A nd           | Version:  6
     \\/     M anipulation  |
\*---------------------------------------------------------------------------*/
FoamFile
{
    version     2.0;
    format      ascii;
    class       volVectorField;
    location    "246";
    object      UMean;
}
// * * * * * * * * * * * * * * * * * * * * * * * * * * * * * * * * * * * * * //

dimensions      [0 1 -1 0 0 0 0];

internalField   nonuniform List<vector> 
9200
(
(0.0015999507 0.00099110875 -6.0681201e-20)
(0.015539815 -0.003409779 4.7994071e-20)
(0.041598295 -0.0080081179 -3.9672205e-20)
(0.077065224 -0.012588537 -6.2732696e-20)
(0.12006862 -0.016925902 1.949595e-20)
(0.1693588 -0.020585282 3.4096937e-20)
(0.22384424 -0.023279119 -1.2755669e-20)
(0.28251672 -0.024864269 9.6478924e-21)
(0.34443372 -0.025284289 1.7725296e-20)
(0.40868689 -0.024546197 1.5666157e-21)
(0.47437886 -0.022709182 -2.2686368e-20)
(0.54061457 -0.0198736 2.1809078e-20)
(0.60650463 -0.016170031 -4.2574803e-20)
(0.6711783 -0.011748147 -2.2358926e-20)
(0.73380472 -0.0067649258 6.2478223e-21)
(0.79361942 -0.0013749526 -2.6648373e-20)
(0.84996945 0.0042926194 2.6772818e-20)
(0.90243565 0.010280609 2.3735099e-20)
(0.95065048 0.016718292 -2.6618002e-22)
(0.9919593 0.020275243 -1.6045377e-21)
(0.0059768928 -0.0018289499 -1.7482265e-20)
(0.029263909 -0.010449443 4.1268217e-20)
(0.065614796 -0.017072837 2.4104976e-20)
(0.1119112 -0.022105858 -1.1986565e-19)
(0.16597589 -0.025728938 -1.3129945e-20)
(0.22630042 -0.027740089 7.6306899e-20)
(0.29152612 -0.028053377 -3.6928895e-20)
(0.3603657 -0.026713057 -8.7897819e-21)
(0.4315921 -0.023833808 3.5959344e-20)
(0.50401558 -0.019581695 -4.5454217e-20)
(0.57647306 -0.014166326 -3.2031414e-20)
(0.6478356 -0.0078304317 7.6031562e-20)
(0.71702902 -0.0008380454 4.0404873e-20)
(0.78306301 0.0065371705 -7.1828699e-20)
(0.84506444 0.014021885 1.5452294e-20)
(0.90230952 0.021347763 -3.8819247e-20)
(0.95426322 0.028265337 -1.4686324e-20)
(1.000677 0.034616659 7.4942666e-20)
(1.0414576 0.039994595 3.1957009e-20)
(1.0748635 0.04129877 -8.4962174e-20)
(0.011760027 -0.0045579559 3.7394051e-20)
(0.046712656 -0.016940797 2.3520609e-21)
(0.095130616 -0.024846301 2.2650086e-20)
(0.1535411 -0.029425135 1.0128936e-21)
(0.21947185 -0.031348534 -4.174401e-20)
(0.29113096 -0.030711715 1.9431211e-20)
(0.36685859 -0.027690757 1.3750235e-20)
(0.44505697 -0.02257502 -5.2433231e-20)
(0.52419598 -0.015703171 5.9888396e-20)
(0.60280955 -0.0074458124 1.5174877e-20)
(0.67950668 0.0018021581 -5.7220446e-20)
(0.75300029 0.011635175 -1.931947e-20)
(0.82214529 0.021653478 9.2905404e-21)
(0.88597814 0.031479295 2.4688922e-20)
(0.94375106 0.040770648 -1.1940435e-20)
(0.99495405 0.049230164 2.929403e-20)
(1.0393266 0.05661895 -2.1287752e-20)
(1.0768862 0.062803526 -7.3335933e-20)
(1.1078047 0.067519528 -2.4281038e-20)
(1.1312682 0.068902216 5.0386859e-20)
(0.01904384 -0.0069467657 2.4810795e-20)
(0.067999691 -0.022188453 5.217802e-20)
(0.13012557 -0.030289967 2.0419294e-20)
(0.20166978 -0.033269373 1.3616925e-20)
(0.27988384 -0.032375477 1.8025469e-20)
(0.36267641 -0.028069905 -4.9512364e-20)
(0.44807115 -0.020854574 -2.6714078e-20)
(0.53416137 -0.011320688 0)
(0.61914426 -7.6293101e-05 1.5236573e-20)
(0.7013464 0.012273567 -6.5550958e-21)
(0.77926091 0.025138153 -1.025859e-19)
(0.85159558 0.037960568 -1.6382984e-20)
(0.91731968 0.050239609 6.8369054e-20)
(0.97569956 0.061548919 4.7811211e-22)
(1.0263166 0.071550858 -1.645066e-21)
(1.0690625 0.080003101 2.29246e-20)
(1.1041152 0.086765048 -5.3760708e-21)
(1.1319123 0.091826081 -6.3654655e-20)
(1.1530336 0.095164681 -4.7805297e-20)
(1.1674769 0.095833967 7.1202438e-20)
(0.027853056 -0.0087132908 -3.8517944e-21)
(0.093018155 -0.02544249 -4.8586527e-21)
(0.1701995 -0.032332195 5.7833827e-20)
(0.25547479 -0.032379264 1.9270491e-20)
(0.34585982 -0.027492101 -3.3293451e-20)
(0.43897432 -0.018567972 1.2374997e-20)
(0.53255034 -0.0064938873 2.7473071e-21)
(0.62442955 0.0077930976 3.5261859e-20)
(0.71263553 0.023392373 5.918722e-21)
(0.79543138 0.039466185 -1.4024575e-20)
(0.87137804 0.055256527 6.3301415e-20)
(0.93938818 0.0701094 -6.0478616e-20)
(0.99876214 0.083497403 -1.3801539e-19)
(1.0491975 0.095034228 -5.8160006e-21)
(1.0907698 0.10447887 8.648388e-20)
(1.1238853 0.11172893 0)
(1.1492138 0.11680951 1.0618441e-20)
(1.1676189 0.11987594 -1.594615e-20)
(1.1800424 0.12111221 -9.0291124e-21)
(1.1870583 0.12013048 2.1498354e-20)
(0.038122488 -0.0095529645 -5.1789925e-21)
(0.12141002 -0.025941336 4.4343036e-21)
(0.2145631 -0.029952848 -8.9497099e-21)
(0.31363593 -0.025644664 2.8948866e-20)
(0.41548482 -0.015649829 -3.0459567e-20)
(0.51749605 -0.0013586331 -1.7530542e-20)
(0.61719405 0.015917092 3.8054569e-20)
(0.71229588 0.034880675 4.7667352e-21)
(0.8008228 0.05435571 -2.5887439e-20)
(0.88118228 0.073320059 7.2778634e-20)
(0.95223021 0.090925156 3.1940546e-22)
(1.0133071 0.10651743 -8.3862876e-20)
(1.0642378 0.11965071 0)
(1.1052931 0.13008371 4.0971572e-20)
(1.1371182 0.13776259 5.6785889e-21)
(1.1606379 0.14279129 -8.008114e-20)
(1.176953 0.14539737 -2.0239919e-20)
(1.1872429 0.14590968 -1.280323e-20)
(1.1926606 0.14467087 -1.5159682e-20)
(1.1940627 0.14162571 4.1556031e-20)
(0.04968397 -0.0091596455 -1.730261e-20)
(0.15255008 -0.022970787 -2.9803158e-21)
(0.26204734 -0.02227324 3.0632823e-20)
(0.37439479 -0.012215826 3.7631857e-20)
(0.48641158 0.0038129567 -2.040959e-20)
(0.5953642 0.023901681 -7.1555937e-20)
(0.69872092 0.046312355 -2.9258845e-20)
(0.79426901 0.069423001 8.1835874e-20)
(0.88025479 0.091851474 9.163435e-21)
(0.95546998 0.11249174 -2.5694379e-20)
(1.0192915 0.13052525 1.3998906e-20)
(1.0716722 0.14542541 -4.5068288e-21)
(1.1130831 0.15694479 0)
(1.1444136 0.1650823 2.8122812e-20)
(1.166848 0.17003515 -8.1835804e-20)
(1.181734 0.17214234 -3.2456999e-20)
(1.1904605 0.17182969 8.335847e-20)
(1.1943597 0.16957025 -4.6278024e-21)
(1.1946267 0.16580703 3.5939907e-21)
(1.1921712 0.16067001 2.7969563e-20)
(0.062260328 -0.0072534244 -3.253805e-20)
(0.18555189 -0.015935828 -8.3101034e-20)
(0.31114843 -0.0086537182 1.8694764e-21)
(0.43565798 0.0083931302 7.2076442e-20)
(0.55603404 0.031083537 6.4130074e-20)
(0.66959836 0.057004737 -7.3155023e-20)
(0.7739763 0.084046245 1.1987827e-22)
(0.86726881 0.11035419 8.8784245e-20)
(0.94819773 0.13446622 5.0491529e-20)
(1.0161675 0.15533685 -5.6182535e-20)
(1.0712539 0.17232395 -9.547657e-20)
(1.1141279 0.18515867 -3.2622218e-21)
(1.1459289 0.1938928 4.3448033e-20)
(1.1681097 0.19882707 -6.7518609e-21)
(1.1822749 0.20043064 -1.3117026e-20)
(1.1900365 0.19926255 2.0029153e-20)
(1.1928997 0.19590547 4.5007254e-20)
(1.1921886 0.1909215 -4.4826688e-20)
(1.1890052 0.1847916 -1.0481148e-19)
(1.1841694 0.17773592 2.5333862e-20)
(0.075435889 -0.003611283 -3.5594371e-20)
(0.21922936 -0.0044364233 -1.7518862e-19)
(0.36000376 0.011223928 8.4613218e-20)
(0.49500179 0.036243475 9.518664e-20)
(0.62152968 0.065856883 5.9325618e-20)
(0.73719441 0.097230885 8.8839187e-21)
(0.84003312 0.12799994 -1.0926076e-19)
(0.92871789 0.15623101 0)
(1.0026751 0.18055256 -7.118833e-20)
(1.0620932 0.20014875 -1.5738569e-20)
(1.1078388 0.21470092 5.6363832e-20)
(1.1413061 0.2243069 1.1264457e-20)
(1.1642291 0.22937994 -4.6837558e-20)
(1.1784887 0.23053803 -5.0278881e-20)
(1.1859419 0.22849848 2.4997947e-20)
(1.1882918 0.22398959 4.605148e-20)
(1.1870052 0.21768705 -5.6997992e-20)
(1.1832782 0.21017825 -1.099593e-19)
(1.1780399 0.20192755 -3.0922043e-21)
(1.1719532 0.19318874 2.7594157e-20)
(0.088639909 0.0019178104 -3.8688235e-21)
(0.25210134 0.011718529 8.9350631e-20)
(0.40642961 0.037360943 -1.5039692e-20)
(0.54975917 0.070997009 -8.7031706e-20)
(0.67999782 0.10738267 4.6397538e-20)
(0.7952955 0.14341911 4.9984899e-20)
(0.8943589 0.17667247 5.7040617e-21)
(0.97665788 0.20533661 -1.0230144e-19)
(1.0424879 0.22833035 -2.5784397e-21)
(1.0929028 0.24523701 5.1968201e-20)
(1.1295515 0.25618347 6.1453189e-21)
(1.1544624 0.26170037 -2.0301993e-20)
(1.1698172 0.26257435 -7.7610371e-20)
(1.1777502 0.25970898 -6.3431735e-21)
(1.1801974 0.25400998 4.450188e-20)
(1.1788039 0.24630351 3.7803293e-20)
(1.1748882 0.23728919 2.0110053e-20)
(1.1694528 0.22752264 -5.4360246e-20)
(1.1632271 0.21741298 1.290914e-20)
(1.1567033 0.20721868 8.4133394e-20)
(-0.0013209356 0.0014509651 -9.0010794e-22)
(-0.0047598774 0.0031912521 1.9133719e-21)
(-0.010792119 0.0041055445 1.6391195e-21)
(-0.017683384 0.0044644209 -1.3643948e-21)
(-0.02450212 0.0044390769 -2.1636527e-21)
(-0.030819708 0.0041453816 2.2958052e-21)
(-0.036363397 0.0036677871 -8.0729274e-21)
(-0.04095769 0.0030673977 -6.970853e-21)
(-0.044506914 0.0023877034 1.2623247e-20)
(-0.046969493 0.0016593875 -1.0873255e-20)
(-0.048337786 0.00090384942 -2.0239844e-22)
(-0.048625265 0.00013576372 4.0603703e-21)
(-0.047858044 -0.00063498343 -6.6921384e-22)
(-0.046069095 -0.0014017592 2.4780945e-20)
(-0.043294631 -0.0021597997 2.7891517e-22)
(-0.039573587 -0.0029047396 -4.407741e-20)
(-0.034950022 -0.0036319938 8.1841703e-21)
(-0.029464851 -0.0043395025 2.5492339e-20)
(-0.023128288 -0.005025788 -4.6732277e-20)
(-0.016002601 -0.0056418888 -2.9473204e-20)
(-0.0016797209 0.0042244178 -5.6334214e-21)
(-0.00539455 0.0092687712 9.942306e-21)
(-0.011188462 0.011903723 -1.0449482e-20)
(-0.017494069 0.012915946 5.3530827e-21)
(-0.023478481 0.012805248 6.3732703e-21)
(-0.028764155 0.011911681 8.7951269e-22)
(-0.033113975 0.010483223 -2.6596929e-20)
(-0.036378298 0.0086992124 -2.2669524e-21)
(-0.038478927 0.0066872774 2.2623518e-20)
(-0.039385623 0.004537437 -5.6092168e-21)
(-0.039097791 0.0023124316 -2.4013425e-20)
(-0.037632905 5.5234605e-05 5.3597223e-21)
(-0.035018896 -0.0022052836 2.4454751e-20)
(-0.031288833 -0.004449852 1.1164068e-20)
(-0.026477145 -0.0066647248 2.3708141e-20)
(-0.020620091 -0.0088375451 -2.1240261e-20)
(-0.013765588 -0.01095547 -2.3135341e-20)
(-0.0059648436 -0.013011931 2.2789369e-20)
(0.002844747 -0.014992284 2.8410848e-20)
(0.012853986 -0.016728397 1.6570453e-20)
(-0.0023279611 0.0066159261 -4.5747029e-21)
(-0.0064981805 0.014447733 -4.9782579e-21)
(-0.011757989 0.018499355 9.7937153e-23)
(-0.016862582 0.019994801 8.6773026e-23)
(-0.02116847 0.019717885 7.4061294e-21)
(-0.024396517 0.018208142 1.1676529e-20)
(-0.026378779 0.015859859 -4.2904719e-21)
(-0.027015886 0.012958335 -2.0962153e-20)
(-0.026263816 0.0097068767 7.2674715e-21)
(-0.024114866 0.0062490846 1.419393e-20)
(-0.020582946 0.0026851223 6.5328493e-21)
(-0.015694487 -0.00091642787 1.9611193e-20)
(-0.0094824704 -0.0045096947 1.8734317e-21)
(-0.0019821079 -0.0080645175 -3.6314174e-20)
(0.0067729379 -0.011559788 1.4935756e-21)
(0.016749026 -0.01497692 -2.3284248e-20)
(0.027889559 -0.01829851 -2.6394232e-20)
(0.040119917 -0.021515855 4.9045783e-20)
(0.053624381 -0.024575684 2.7157621e-20)
(0.069088642 -0.027113146 4.2440046e-22)
(-0.0031434312 0.0084151228 -5.6667704e-21)
(-0.0077887807 0.018228314 -1.0779874e-20)
(-0.012143101 0.023220765 4.4628264e-21)
(-0.015403417 0.024934682 4.5949447e-21)
(-0.01718784 0.024369102 2.0991611e-21)
(-0.017355152 0.022224439 8.4559218e-21)
(-0.015835741 0.01901417 1.0515907e-20)
(-0.012602695 0.015110074 -1.5677894e-21)
(-0.0076623827 0.010777673 -1.2663364e-20)
(-0.0010416659 0.0062049538 -3.1836237e-20)
(0.0072217721 0.0015232322 1.4674458e-22)
(0.017084534 -0.0031775304 4.40169e-20)
(0.02850189 -0.0078376432 -1.957048e-20)
(0.041429332 -0.012418291 -1.3192549e-20)
(0.055826692 -0.016893481 3.4004198e-22)
(0.071656424 -0.021242401 3.4563379e-20)
(0.088847435 -0.025450486 -1.6205104e-20)
(0.10728366 -0.0295166 -5.6452684e-20)
(0.12727732 -0.03332402 4.8079737e-20)
(0.15022067 -0.036190608 3.4845606e-20)
(-0.0039625182 0.0094782907 -4.9663463e-22)
(-0.0088806551 0.020256813 -1.3165797e-20)
(-0.011844182 0.025583203 -3.7710247e-20)
(-0.012566779 0.027177225 -6.8073272e-21)
(-0.01097714 0.026169814 -3.4064269e-21)
(-0.0071013961 0.023374337 7.0733474e-21)
(-0.00099167238 0.019389296 -5.3263953e-21)
(0.0072871828 0.014648031 -9.7901082e-21)
(0.017662729 0.0094606753 2.3858213e-20)
(0.030059986 0.0040471954 5.3839636e-21)
(0.044405636 -0.0014382962 -2.7636316e-20)
(0.060627963 -0.0068900941 1.1792313e-20)
(0.078657296 -0.012238114 0)
(0.098426547 -0.017438062 1.2916739e-20)
(0.11987428 -0.022462623 -1.033606e-20)
(0.14294389 -0.027293935 -1.5363922e-20)
(0.16753661 -0.031930551 -1.1094206e-21)
(0.19347275 -0.036399639 -2.5516041e-21)
(0.22115236 -0.040518692 4.7896431e-20)
(0.25282354 -0.043146889 -1.1691739e-20)
(-0.0045981159 0.009737691 -7.7629151e-21)
(-0.0093182521 0.020351423 2.6259151e-20)
(-0.010252395 0.025329107 -1.1645562e-20)
(-0.0076626471 0.026424906 -2.9614767e-20)
(-0.0018139969 0.024813562 -2.9144377e-20)
(0.0070809873 0.021369306 -1.6183805e-20)
(0.018831061 0.016737153 -8.6977043e-22)
(0.033263183 0.011382907 6.0455153e-21)
(0.050223927 0.0056406315 2.1105176e-20)
(0.069575747 -0.00025184225 7.9067734e-21)
(0.091191976 -0.0061277825 -7.6522462e-21)
(0.11495428 -0.011872831 -1.9653216e-21)
(0.14074887 -0.017411749 -4.0818273e-20)
(0.16846386 -0.022698691 -1.3517811e-20)
(0.19799103 -0.027708912 2.0264171e-20)
(0.22922696 -0.03243285 -2.2523227e-20)
(0.26202195 -0.036892793 -9.506042e-21)
(0.29610764 -0.041172948 3.1686752e-20)
(0.33189784 -0.04506026 5.2574562e-20)
(0.37254814 -0.046843191 3.5882419e-21)
(-0.0048554873 0.0091982311 1.7239816e-20)
(-0.008608884 0.018504702 1.4900954e-20)
(-0.0066852628 0.022443355 5.401184e-20)
(0.00010707494 0.022670761 2.5122531e-20)
(0.011160723 0.020320002 1.9800838e-22)
(0.026066581 0.016273452 -4.2478715e-20)
(0.044482097 0.011182654 -2.6002355e-20)
(0.066113215 0.0055160778 1.1216905e-20)
(0.090707349 -0.0003909554 1.5409139e-20)
(0.11804303 -0.0062998924 -1.3883131e-20)
(0.14791867 -0.012043986 -4.7126859e-20)
(0.18014358 -0.017510118 3.1664054e-20)
(0.21453039 -0.022625734 2.1146961e-20)
(0.25088933 -0.027349952 -2.927828e-20)
(0.28902816 -0.031666778 1.2460109e-20)
(0.32875589 -0.03558182 2.555882e-20)
(0.36983631 -0.039151146 8.6216131e-21)
(0.41188563 -0.04254718 -1.2734659e-20)
(0.45524209 -0.045604566 -1.448174e-20)
(0.50389721 -0.046021661 7.210773e-21)
(-0.004543155 0.0079256014 1.1568633e-20)
(-0.0062496065 0.014866718 -2.5008504e-20)
(-0.00042215025 0.017142915 8.5077206e-21)
(0.011608442 0.016198276 3.569338e-20)
(0.028899439 0.013044868 5.4923147e-20)
(0.050841952 0.0085233171 2.1530865e-20)
(0.076932592 0.0032533457 -6.2098454e-21)
(0.10673773 -0.002326019 -1.3053797e-20)
(0.1398848 -0.0079024864 -6.6495725e-21)
(0.17604251 -0.013256123 3.6462626e-20)
(0.2149023 -0.01823637 -4.953597e-21)
(0.25616411 -0.022745133 -1.781059e-20)
(0.29952551 -0.02672484 -2.08024e-20)
(0.34467371 -0.030150999 -5.0369622e-20)
(0.39128461 -0.033027483 2.4517824e-20)
(0.43903071 -0.035386426 -1.4874137e-20)
(0.48754881 -0.037331048 2.7549457e-20)
(0.53632495 -0.039157325 2.2269775e-20)
(0.58555378 -0.040870861 -8.8674877e-20)
(0.63986994 -0.039741857 2.3415195e-22)
(-0.0034799637 0.0060323585 2.2639135e-20)
(-0.0017528987 0.009722529 -2.7603576e-20)
(0.0092498435 0.0098595174 -4.6959385e-20)
(0.027707498 0.0075745673 -2.8641266e-20)
(0.052357082 0.0036873483 -2.1584853e-21)
(0.082385182 -0.00105094 1.3864114e-20)
(0.11711395 -0.0060911547 -3.0085574e-21)
(0.15595094 -0.011055265 1.9149187e-20)
(0.19837492 -0.015681145 9.3619623e-21)
(0.24390877 -0.019790863 -1.2051189e-20)
(0.29209463 -0.023270944 9.5379249e-21)
(0.34247601 -0.026057547 -2.5354473e-20)
(0.39458495 -0.028125825 8.7760177e-21)
(0.44793365 -0.029483317 1.7780129e-20)
(0.5020134 -0.030165969 -2.9473883e-21)
(0.55630467 -0.03024006 1.8631963e-21)
(0.61026139 -0.029856665 -5.3365872e-22)
(0.66321672 -0.029419253 2.0820836e-20)
(0.71518737 -0.029128495 3.9980866e-21)
(0.77121473 -0.026335183 -1.8791819e-21)
(-0.0014958451 0.0036666454 2.4655291e-20)
(0.0053336032 0.003477833 5.9955734e-20)
(0.022982231 0.0012374654 -5.1138681e-20)
(0.049174166 -0.0023304881 -1.0420603e-20)
(0.082339559 -0.0066708116 2.1292428e-20)
(0.12145617 -0.011168551 2.2484765e-21)
(0.16565557 -0.015385052 -3.131587e-20)
(0.21415902 -0.019039766 7.3596846e-21)
(0.26625985 -0.021953799 7.4790015e-21)
(0.32129149 -0.024022167 -2.7712784e-20)
(0.37860008 -0.02519817 1.3620178e-21)
(0.4375272 -0.025480694 -3.9371619e-20)
(0.49740035 -0.024903829 -3.8509395e-20)
(0.55752981 -0.023528562 6.962277e-20)
(0.61721132 -0.021435472 5.8920354e-21)
(0.675733 -0.018723826 -1.6055251e-20)
(0.73236041 -0.015552368 2.041991e-20)
(0.78626287 -0.012225546 -9.5937467e-22)
(0.83698051 -0.0087669269 2.0872074e-20)
(0.88821048 -0.0036512662 -2.107843e-20)
(-0.0075263842 -0.0059255228 6.194367e-20)
(0.0024213817 -0.0064476862 1.6460835e-20)
(0.013788775 -0.0068661006 -3.6678882e-20)
(0.026220218 -0.0071105327 1.7675689e-20)
(0.039439085 -0.0072644663 0)
(0.053379977 -0.0073568296 0)
(0.067979319 -0.0073905658 -2.3714822e-20)
(0.083152976 -0.0073736817 -1.6922295e-20)
(0.098825699 -0.0073159553 1.9708712e-20)
(0.11493365 -0.0072245347 1.8605959e-20)
(0.131418 -0.0071048792 1.0418203e-21)
(0.14822336 -0.0069617918 -1.0404704e-20)
(0.16529809 -0.0067994589 8.5400078e-21)
(0.18259398 -0.0066214307 1.825438e-20)
(0.20006564 -0.0064307462 -5.3829491e-21)
(0.21767007 -0.0062300429 -1.0092434e-20)
(0.23536656 -0.0060216223 -4.2637917e-21)
(0.25311643 -0.0058075026 -4.2915823e-21)
(0.27088292 -0.0055894647 7.0039978e-22)
(0.28863117 -0.0053690885 1.2137393e-21)
(0.30632815 -0.0051477814 2.5775612e-21)
(0.3239427 -0.0049267985 6.5009513e-21)
(0.34144551 -0.0047072597 1.5429122e-22)
(0.3588092 -0.0044901609 -3.3584153e-21)
(0.37600834 -0.0042763841 1.3202469e-22)
(0.39301946 -0.0040667039 -5.5717054e-22)
(0.40982115 -0.0038617939 1.1957623e-21)
(0.42639398 -0.0036622317 9.7828144e-22)
(0.4427206 -0.0034685044 -1.2919443e-21)
(0.45878566 -0.0032810131 -1.0244253e-22)
(0.4745758 -0.0031000783 -3.4707366e-23)
(0.49007964 -0.0029259459 -3.3151349e-22)
(0.50528771 -0.0027587926 -4.0972353e-22)
(0.52019236 -0.0025987324 8.6989215e-23)
(0.53478776 -0.0024458232 -1.2837721e-22)
(0.5490698 -0.0023000738 -1.9976364e-22)
(0.56303603 -0.002161451 2.2742729e-22)
(0.57668564 -0.0020298871 2.581474e-22)
(0.59001932 -0.0019052891 -3.0223034e-23)
(0.60303968 -0.0017875436 -1.6262474e-22)
(0.61575004 -0.001676545 1.7362323e-23)
(0.62815851 -0.0015721516 -2.6391432e-23)
(0.64026612 -0.0014743999 8.0919527e-23)
(0.65210465 -0.0013829221 -1.2424378e-23)
(0.66362555 -0.0012989781 -1.3215584e-22)
(0.67503459 -0.0012193774 4.6998088e-24)
(0.68582085 -0.001156197 5.6546595e-24)
(0.69759454 -0.0010771811 -5.1140764e-24)
(0.70595853 -0.0010905573 2.6226735e-23)
(0.72331812 -0.00091957719 3.7063847e-22)
(0.022556317 -0.017443431 -1.3841724e-20)
(0.031543127 -0.019028051 -6.6498423e-20)
(0.042428923 -0.020257496 -3.2363303e-20)
(0.054347825 -0.02095418 4.0338586e-20)
(0.06690809 -0.021396294 1.5317649e-20)
(0.080124441 -0.021667775 -1.9154997e-20)
(0.093965411 -0.021769474 5.1296218e-21)
(0.10834986 -0.021723443 2.6140973e-20)
(0.12320997 -0.021558795 -1.4958886e-22)
(0.13849146 -0.021296054 -7.9342278e-21)
(0.15414264 -0.020950617 -1.2920223e-20)
(0.17011345 -0.020536242 -8.8291566e-21)
(0.18635678 -0.020065019 1.7906903e-20)
(0.20282823 -0.019547207 9.5110553e-21)
(0.21948548 -0.018991612 -1.6257309e-20)
(0.23628804 -0.018405912 -6.0110873e-21)
(0.25319722 -0.017796835 3.1189328e-21)
(0.27017598 -0.017170306 8.1583968e-21)
(0.28718891 -0.016531571 6.9363394e-21)
(0.30420221 -0.015885304 -7.0561642e-21)
(0.32118372 -0.015235679 -3.349179e-21)
(0.33810293 -0.014586434 1.5406349e-21)
(0.35493107 -0.013940909 6.2542969e-22)
(0.37164115 -0.013302085 1.2394015e-21)
(0.38820799 -0.012672607 2.3099537e-22)
(0.40460832 -0.012054802 -3.6689565e-22)
(0.42082078 -0.011450701 -7.4458504e-22)
(0.43682595 -0.010862048 1.0563239e-21)
(0.45260639 -0.010290319 8.6339542e-22)
(0.4681466 -0.0097367341 -2.5611817e-22)
(0.48343299 -0.009202273 5.8998622e-22)
(0.49845392 -0.0086876923 -2.2517137e-22)
(0.51319956 -0.0081935425 -4.0675805e-22)
(0.52766191 -0.0077201869 -6.1961849e-22)
(0.54183472 -0.0072678208 4.1100908e-22)
(0.5557134 -0.006836492 -9.9546922e-23)
(0.56929503 -0.006426123 2.1349318e-22)
(0.58257827 -0.0060365322 -4.6289503e-22)
(0.59556329 -0.0056674631 4.3834235e-22)
(0.60825213 -0.0053185956 6.1136065e-23)
(0.62064756 -0.0049896344 -6.3418584e-23)
(0.63275708 -0.0046801739 2.0987776e-22)
(0.64458121 -0.0043903419 2.8141056e-22)
(0.6561509 -0.0041190546 2.125403e-22)
(0.6674177 -0.0038700946 2.2544776e-22)
(0.67858446 -0.0036339462 -1.8506162e-23)
(0.68914641 -0.0034466535 1.1508793e-22)
(0.70069136 -0.0032120737 1.0152873e-22)
(0.70888511 -0.0032523669 -2.03199e-22)
(0.72594024 -0.0027446933 -1.2460081e-23)
(0.081035067 -0.027917702 1.0196003e-20)
(0.088118738 -0.030574491 3.8010021e-21)
(0.097940197 -0.032560201 -1.3622543e-20)
(0.10880126 -0.033630568 -1.6000413e-21)
(0.12002612 -0.034322425 1.59585e-20)
(0.13178581 -0.03476966 -1.5515338e-20)
(0.14411965 -0.034951795 -3.1265543e-20)
(0.15694858 -0.034899116 1.5265337e-20)
(0.17021593 -0.034659326 1.8990041e-20)
(0.18388515 -0.034264206 -1.2051342e-20)
(0.19791744 -0.033736593 1.0418817e-21)
(0.21227198 -0.033097457 8.4456452e-21)
(0.22690949 -0.032365586 -1.5703339e-20)
(0.24179213 -0.031556991 3.6879773e-21)
(0.25688285 -0.030685477 7.7699506e-21)
(0.27214541 -0.029763185 -4.609823e-22)
(0.28754451 -0.028800851 -3.7959967e-23)
(0.30304585 -0.027808 -7.6120936e-21)
(0.31861623 -0.026793133 4.3681788e-21)
(0.33422356 -0.02576387 8.6405875e-21)
(0.34983706 -0.024727063 -3.8891589e-21)
(0.36542729 -0.023688877 -2.1755844e-21)
(0.38096626 -0.022654854 8.9809759e-22)
(0.39642757 -0.021629958 -1.7681777e-21)
(0.41178643 -0.020618613 1.3142153e-21)
(0.42701977 -0.019624729 6.9561385e-22)
(0.44210628 -0.01865173 1.7700817e-21)
(0.45702646 -0.017702573 -2.1485919e-21)
(0.47176265 -0.016779771 2.4383956e-21)
(0.48629899 -0.015885416 5.8665636e-22)
(0.50062148 -0.015021205 5.9143218e-22)
(0.51471789 -0.014188463 3.0340392e-22)
(0.52857778 -0.013388175 1.0013604e-21)
(0.54219241 -0.012621014 -1.5381015e-21)
(0.55555473 -0.011887375 4.2687217e-22)
(0.56865932 -0.011187407 2.0868927e-22)
(0.58150231 -0.01052105 -7.57318e-23)
(0.59408143 -0.0098880689 2.2934304e-23)
(0.60639584 -0.0092881044 -3.9790758e-22)
(0.61844654 -0.0087206889 2.1913182e-22)
(0.63023526 -0.008185394 -3.033879e-23)
(0.6417684 -0.0076816055 5.2632785e-22)
(0.6530455 -0.0072095923 -2.444969e-22)
(0.66409599 -0.0067676104 3.8526529e-23)
(0.67487156 -0.0063619636 7.127959e-23)
(0.68556964 -0.0059769887 -9.1335665e-23)
(0.69569709 -0.0056720958 -1.5319545e-22)
(0.70679888 -0.0052892416 4.9992976e-22)
(0.71466219 -0.0053566953 1.8055503e-22)
(0.73112687 -0.004528165 -8.501625e-22)
(0.16504916 -0.036612964 1.7879639e-21)
(0.16931375 -0.040325498 -1.178794e-20)
(0.17734743 -0.042986825 6.5982392e-21)
(0.186542 -0.044339428 -1.4005179e-20)
(0.19573582 -0.045246421 -2.0702679e-21)
(0.2053029 -0.045881421 9.8983383e-21)
(0.21540155 -0.046179569 -1.0804531e-20)
(0.22595149 -0.046170041 1.1636488e-21)
(0.23690413 -0.045916596 1.3325919e-20)
(0.24824581 -0.045459642 3.7863407e-21)
(0.25995457 -0.044826256 -6.361204e-21)
(0.27200044 -0.044041991 -3.1872077e-21)
(0.28435319 -0.043130527 -5.5679963e-21)
(0.29698268 -0.042112325 -6.7555012e-21)
(0.30985797 -0.041005184 2.8242381e-21)
(0.32294759 -0.039824947 3.3778909e-22)
(0.33622001 -0.038585816 1.5523784e-21)
(0.34964392 -0.037300552 -3.3823396e-21)
(0.36318844 -0.035980664 -4.5499087e-21)
(0.3768233 -0.03463657 2.5058779e-21)
(0.39051907 -0.033277722 3.4875403e-21)
(0.40424735 -0.031912687 -1.8126927e-21)
(0.41798088 -0.030549218 1.67567e-21)
(0.43169372 -0.029194303 -5.0016163e-22)
(0.44536133 -0.0278542 -4.2674218e-21)
(0.4589607 -0.026534477 -3.057894e-21)
(0.4724704 -0.025240029 -2.8437498e-22)
(0.48587066 -0.023975114 3.2234449e-22)
(0.49914336 -0.022743374 -2.2059124e-21)
(0.5122721 -0.021547871 -1.0493646e-21)
(0.52524216 -0.020391112 2.1693993e-22)
(0.53804051 -0.019275091 -1.3826369e-21)
(0.55065579 -0.018201326 -5.7160814e-23)
(0.56307825 -0.0171709 -5.0270243e-22)
(0.57529972 -0.016184505 -4.4201921e-22)
(0.58731361 -0.015242488 -6.7575698e-22)
(0.5991148 -0.014344904 -1.0381016e-21)
(0.61069971 -0.01349156 -1.5856924e-23)
(0.62206616 -0.012682086 -3.5332551e-24)
(0.63321377 -0.011915957 -6.0833728e-22)
(0.64414284 -0.011192699 -2.3648843e-23)
(0.65485829 -0.010511574 -4.1503266e-22)
(0.66535836 -0.0098730649 -6.0548984e-22)
(0.67567039 -0.0092748592 4.8365986e-22)
(0.68574636 -0.008725757 1.3790299e-23)
(0.695776 -0.0082042768 2.3847454e-22)
(0.70528295 -0.0077920967 -1.748164e-22)
(0.7157506 -0.0072728029 -3.396216e-22)
(0.72314119 -0.007367448 -1.8512621e-23)
(0.73875801 -0.0062438935 4.8355056e-22)
(0.27063135 -0.042735417 -2.2767898e-20)
(0.27116848 -0.04747781 4.9753053e-20)
(0.27653936 -0.050722757 1.0700037e-20)
(0.28336338 -0.052292016 -1.6609648e-20)
(0.28982065 -0.053415879 -2.457687e-21)
(0.2964743 -0.054284633 2.3910204e-21)
(0.30364915 -0.054772285 -2.0629771e-21)
(0.31126523 -0.054896541 -4.8562304e-21)
(0.31927065 -0.054730192 -4.1548016e-21)
(0.32767342 -0.054318991 -1.2591757e-20)
(0.33646995 -0.053691835 1.8836494e-20)
(0.34564039 -0.05287617 6.9769522e-21)
(0.35516207 -0.051898408 -1.7117583e-20)
(0.36501153 -0.050782084 9.9883267e-21)
(0.37516308 -0.04954806 7.9882813e-21)
(0.38558918 -0.048215193 -4.1177663e-22)
(0.39626126 -0.046800685 -2.8245652e-21)
(0.40715026 -0.045320248 -4.2465253e-21)
(0.41822695 -0.043788259 -1.5848042e-21)
(0.42946224 -0.042217886 -1.4008363e-21)
(0.44082753 -0.040621197 -3.3482197e-21)
(0.45229489 -0.039009229 0)
(0.46383733 -0.037392046 -1.4858893e-21)
(0.47542894 -0.035778777 3.9855967e-21)
(0.48704503 -0.034177654 5.6758788e-21)
(0.49866228 -0.032596036 -9.1056091e-22)
(0.51025878 -0.031040441 -3.272329e-21)
(0.52181416 -0.029516569 3.4383306e-21)
(0.53330957 -0.02802934 5.4272235e-23)
(0.54472775 -0.026582924 3.7586571e-21)
(0.55605302 -0.025180784 -5.0898823e-22)
(0.56727128 -0.02382572 1.7971082e-21)
(0.57837 -0.022519918 -9.0161767e-22)
(0.58933816 -0.021265003 4.0642159e-22)
(0.60016628 -0.020062093 -5.3299218e-22)
(0.61084635 -0.018911863 5.8342627e-22)
(0.62137178 -0.017814603 5.328561e-22)
(0.63173747 -0.016770283 4.4773362e-22)
(0.64193967 -0.015778637 -1.1047912e-21)
(0.65197639 -0.014839197 7.9018783e-22)
(0.66184632 -0.01395155 -4.1617775e-22)
(0.67155264 -0.013114939 -1.3482836e-21)
(0.68109211 -0.012330146 1.7210793e-21)
(0.69048961 -0.011594408 -5.555101e-23)
(0.69969765 -0.010918969 -1.9563088e-22)
(0.70889635 -0.010276981 -7.105647e-24)
(0.71763077 -0.0097708623 -1.906046e-22)
(0.72730636 -0.0091306713 -5.8426493e-22)
(0.7341072 -0.0092522863 7.9213571e-22)
(0.74865917 -0.0078678417 -4.9676e-23)
(0.39280417 -0.045334473 -1.9097303e-20)
(0.38875042 -0.051136986 1.3211076e-20)
(0.39048708 -0.054916651 3.7618247e-21)
(0.39415475 -0.056727923 -8.075127e-21)
(0.39720286 -0.058150985 1.2665183e-20)
(0.40028977 -0.059354403 8.1676722e-21)
(0.4039317 -0.060155357 -1.2868229e-20)
(0.40806592 -0.060556803 -6.3120394e-21)
(0.4126218 -0.060627725 1.3160234e-20)
(0.41761695 -0.060412996 -1.6421825e-20)
(0.42306349 -0.059942108 -1.4459977e-20)
(0.42894965 -0.059242945 1.5168405e-20)
(0.43525675 -0.058342828 6.9965369e-21)
(0.44196473 -0.057267206 -5.100862e-21)
(0.44905076 -0.056039436 -1.3977727e-21)
(0.45648923 -0.054681082 -3.6467891e-21)
(0.46425279 -0.053212188 4.8707535e-21)
(0.47231307 -0.051651411 3.6858886e-21)
(0.48064119 -0.050016089 -3.1389756e-21)
(0.48920811 -0.048322306 3.1252723e-21)
(0.49798505 -0.046584953 2.9402855e-21)
(0.50694369 -0.044817767 -3.3633499e-21)
(0.51605654 -0.043033366 3.6748451e-22)
(0.52529702 -0.041243268 -3.1952434e-21)
(0.53463969 -0.039457916 8.0740151e-21)
(0.54406037 -0.037686703 6.4893232e-21)
(0.55353622 -0.035937989 1.0237279e-21)
(0.56304582 -0.034219138 -1.8335009e-21)
(0.57256924 -0.032536551 4.2248992e-21)
(0.58208803 -0.030895704 7.9933391e-21)
(0.59158525 -0.029301202 2.3919628e-21)
(0.6010455 -0.027756826 3.677466e-21)
(0.61045485 -0.026265601 2.1303136e-21)
(0.61980085 -0.024829852 8.4552459e-22)
(0.62907253 -0.023451281 -2.4756971e-22)
(0.63826032 -0.022131032 3.0597195e-21)
(0.64735605 -0.020869774 6.8955883e-22)
(0.65635301 -0.019667774 3.1709214e-22)
(0.66524577 -0.018524999 5.6961377e-23)
(0.67403066 -0.017441161 1.1911453e-21)
(0.68270469 -0.016416024 4.2842825e-23)
(0.69126922 -0.015448924 5.6317498e-22)
(0.69971951 -0.014541036 -1.2656313e-22)
(0.70807776 -0.013689269 -3.8634853e-22)
(0.71629732 -0.01290724 -1.9460297e-22)
(0.72454725 -0.012163265 -5.3382193e-22)
(0.73239795 -0.011578639 2.2834302e-22)
(0.74116352 -0.01083572 -1.5767292e-22)
(0.74728843 -0.01098384 -4.5278804e-22)
(0.76060758 -0.0093786678 2.7802807e-22)
(0.52547147 -0.04348901 3.4653752e-21)
(0.51618199 -0.050392389 -1.9304898e-20)
(0.5133478 -0.054714208 -2.5567092e-21)
(0.51308371 -0.05695463 5.6805207e-21)
(0.51219293 -0.058900128 3.5335744e-21)
(0.5112386 -0.060627193 5.3089606e-22)
(0.51089693 -0.061926979 7.0806408e-21)
(0.51116518 -0.06280344 8.1008536e-21)
(0.51195117 -0.063311517 1.0083937e-20)
(0.51325949 -0.06348642 -1.1799363e-20)
(0.51510763 -0.063356602 -2.279696e-20)
(0.51748886 -0.062950474 -4.4520085e-21)
(0.5203848 -0.062295833 1.6723836e-20)
(0.52377456 -0.061419644 1.3345838e-20)
(0.52763485 -0.060347798 -5.7628135e-21)
(0.53193956 -0.05910486 9.5172199e-22)
(0.53666047 -0.057714082 -4.1371601e-21)
(0.5417682 -0.056197458 3.0108537e-21)
(0.54723273 -0.054575714 -2.9321177e-22)
(0.55302384 -0.052868285 -1.9589588e-21)
(0.55911144 -0.051093311 8.4353743e-21)
(0.56546594 -0.049267643 -4.7136364e-22)
(0.57205846 -0.047406841 5.8387242e-22)
(0.57886106 -0.045525183 -4.8061029e-22)
(0.58584689 -0.04363567 -4.4925091e-21)
(0.59299034 -0.041750046 4.3856171e-21)
(0.60026713 -0.039878816 1.8500094e-21)
(0.60765437 -0.038031282 -3.4313671e-21)
(0.61513064 -0.036215582 -4.0836273e-21)