/*--------------------------------*- C++ -*----------------------------------*\
| =========                 |                                                 |
| \\      /  F ield         | OpenFOAM: The Open Source CFD Toolbox           |
|  \\    /   O peration     | Version:  4.1                                   |
|   \\  /    A nd           | Web:      www.OpenFOAM.org                      |
|    \\/     M anipulation  |                                                 |
\*---------------------------------------------------------------------------*/
FoamFile
{
    version     2.0;
    format      ascii;
    class       volScalarField;
    location    "12";
    object      p;
}
// * * * * * * * * * * * * * * * * * * * * * * * * * * * * * * * * * * * * * //

dimensions      [0 2 -2 0 0 0 0];

internalField   nonuniform List<scalar> 
1000
(
1.5224876
1.5057418
1.4893997
1.4733438
1.4574688
1.44171
1.4260323
1.4104174
1.3948537
1.379332
1.3638446
1.3483855
1.3329505
1.3175365
1.3021412
1.2867626
1.2713991
1.2560493
1.2407119
1.2253857
1.2100698
1.1947633
1.1794654
1.1641753
1.1488925
1.1336162
1.118346
1.1030813
1.0878218
1.0725668
1.0573162
1.0420695
1.0268263
1.0115865
0.99634966
0.98111559
0.96588405
0.95065481
0.93542768
0.92020247
0.90497902
0.88975717
0.87453678
0.85931772
0.84409986
0.8288831
0.81366733
0.79845246
0.7832384
0.76802508
0.75281243
0.73760037
0.72238885
0.70717781
0.69196721
0.67675698
0.66154711
0.64633754
0.63112823
0.61591917
0.60071032
0.58550164
0.57029313
0.55508475
0.53987648
0.52466832
0.50946024
0.49425223
0.47904427
0.46383637
0.4486285
0.43342066
0.41821285
0.40300506
0.38779728
0.37258952
0.35738176
0.34217402
0.32696627
0.31175853
0.29655079
0.28134306
0.26613532
0.25092759
0.23571986
0.22051212
0.20530439
0.19009666
0.17488893
0.15968119
0.14447346
0.12926573
0.114058
0.098850264
0.083642532
0.0684348
0.053227068
0.038019335
0.022811602
0.0076038678
1.5221856
1.5054197
1.4893099
1.4734315
1.4576039
1.4418242
1.4261183
1.410487
1.3949149
1.3793865
1.363892
1.3484261
1.3329854
1.3175669
1.302168
1.2867865
1.2714206
1.2560686
1.2407292
1.2254014
1.210084
1.1947762
1.1794771
1.164186
1.1489022
1.133625
1.118354
1.1030886
1.0878284
1.0725729
1.0573217
1.0420744
1.0268308
1.0115906
0.99635337
0.98111895
0.96588708
0.95065755
0.93543015
0.9202047
0.90498102
0.88975897
0.87453839
0.85931916
0.84410115
0.82888424
0.81366835
0.79845336
0.7832392
0.76802579
0.75281305
0.73760091
0.72238932
0.70717822
0.69196756
0.67675729
0.66154737
0.64633776
0.63112842
0.61591932
0.60071044
0.58550175
0.57029321
0.55508481
0.53987654
0.52466836
0.50946027
0.49425225
0.47904429
0.46383638
0.44862851
0.43342067
0.41821286
0.40300506
0.38779729
0.37258952
0.35738177
0.34217402
0.32696627
0.31175853
0.29655079
0.28134306
0.26613532
0.25092759
0.23571986
0.22051212
0.20530439
0.19009666
0.17488893
0.15968119
0.14447346
0.12926573
0.114058
0.098850264
0.083642532
0.0684348
0.053227068
0.038019335
0.022811603
0.0076038683
1.5216432
1.5047631
1.4889745
1.4734101
1.4577121
1.44193
1.4261882
1.4105357
1.3949586
1.3794295
1.3639318
1.3484605
1.3330143
1.3175916
1.3021896
1.2868056
1.2714376
1.2560837
1.2407427
1.2254135
1.2100949
1.194786
1.179486
1.164194
1.1489095
1.1336316
1.11836
1.1030941
1.0878334
1.0725774
1.0573258
1.0420782
1.0268342
1.0115937
0.99635616
0.98112148
0.96588938
0.95065963
0.93543203
0.9202064
0.90498256
0.88976035
0.87453964
0.85932028
0.84410215
0.82888515
0.81366915
0.79845408
0.78323984
0.76802636
0.75281355
0.73760136
0.72238971
0.70717856
0.69196786
0.67675755
0.66154759
0.64633795
0.63112859
0.61591947
0.60071056
0.58550185
0.57029329
0.55508488
0.53987659
0.52466841
0.50946031
0.49425228
0.47904432
0.4638364
0.44862852
0.43342068
0.41821287
0.40300507
0.38779729
0.37258953
0.35738177
0.34217402
0.32696627
0.31175853
0.29655079
0.28134306
0.26613532
0.25092759
0.23571986
0.22051212
0.20530439
0.19009666
0.17488893
0.15968119
0.14447346
0.12926573
0.114058
0.098850265
0.083642533
0.0684348
0.053227068
0.038019336
0.022811603
0.0076038689
1.5211089
1.5040613
1.4885525
1.4733215
1.457792
1.44203
1.4262563
1.4105814
1.3950003
1.3794731
1.3639743
1.3484982
1.3330462
1.3176186
1.3022131
1.2868265
1.2714561
1.2561002
1.2407574
1.2254266
1.2101067
1.1947967
1.1794956
1.1642028
1.1489174
1.1336389
1.1183666
1.1031001
1.0878388
1.0725824
1.0573303
1.0420823
1.026838
1.0115971
0.9963593
0.98112434
0.96589199
0.950662
0.93543419
0.92020836
0.90498434
0.88976198
0.87454111
0.85932161
0.84410336
0.82888624
0.81367014
0.79845497
0.78324064
0.76802707
0.75281419
0.73760193
0.72239023
0.70717902
0.69196827
0.67675791
0.66154791
0.64633823
0.63112883
0.61591968
0.60071075
0.58550201
0.57029343
0.555085
0.53987669
0.52466849
0.50946038
0.49425234
0.47904436
0.46383644
0.44862856
0.43342071
0.41821289
0.40300509
0.3877973
0.37258953
0.35738177
0.34217402
0.32696628
0.31175853
0.2965508
0.28134306
0.26613532
0.25092759
0.23571986
0.22051212
0.20530439
0.19009666
0.17488893
0.15968119
0.14447346
0.12926573
0.114058
0.098850265
0.083642533
0.068434801
0.053227069
0.038019336
0.022811604
0.0076038693
1.5207903
1.5036258
1.4882721
1.4732483
1.4578347
1.4420928
1.4263008
1.4106111
1.3950274
1.3795022
1.3640036
1.3485248
1.3330691
1.3176383
1.3022304
1.2868419
1.27147
1.2561126
1.2407685
1.2254366
1.2101157
1.1948048
1.179503
1.1642095
1.1489235
1.1336444
1.1183717
1.1031047
1.0878431
1.0725862
1.0573339
1.0420856
1.026841
1.0115998
0.99636179
0.98112661
0.96589406
0.95066389
0.93543592
0.92020994
0.90498578
0.88976328
0.8745423
0.85932269
0.84410434
0.82888712
0.81367094
0.7984557
0.7832413
0.76802767
0.75281473
0.73760241
0.72239066
0.70717941
0.69196861
0.67675822
0.66154819
0.64633848
0.63112905
0.61591987
0.60071092
0.58550215
0.57029356
0.55508511
0.53987679
0.52466857
0.50946044
0.49425239
0.47904441
0.46383648
0.44862859
0.43342073
0.41821291
0.4030051
0.38779732
0.37258954
0.35738178
0.34217403
0.32696628
0.31175854
0.2965508
0.28134306
0.26613532
0.25092759
0.23571986
0.22051212
0.20530439
0.19009666
0.17488893
0.15968119
0.14447346
0.12926573
0.114058
0.098850265
0.083642533
0.068434801
0.053227069
0.038019337
0.022811605
0.0076038696
1.5207903
1.5036258
1.4882721
1.4732483
1.4578347
1.4420928
1.4263008
1.4106111
1.3950274
1.3795022
1.3640036
1.3485248
1.3330691
1.3176383
1.3022304
1.2868419
1.27147
1.2561126
1.2407685
1.2254366
1.2101157
1.1948048
1.179503
1.1642095
1.1489235
1.1336444
1.1183717
1.1031047
1.0878431
1.0725862
1.0573339
1.0420856
1.026841
1.0115998
0.99636179
0.98112661
0.96589406
0.95066389
0.93543592
0.92020994
0.90498578
0.88976328
0.8745423
0.85932269
0.84410434
0.82888712
0.81367094
0.7984557
0.7832413
0.76802767
0.75281473
0.73760241
0.72239066
0.70717941
0.69196861
0.67675822
0.66154819
0.64633848
0.63112905
0.61591987
0.60071092
0.58550215
0.57029356
0.55508511
0.53987679
0.52466857
0.50946044
0.49425239
0.47904441
0.46383648
0.44862859
0.43342073
0.41821291
0.4030051
0.38779732
0.37258954
0.35738178
0.34217403
0.32696628
0.31175854
0.2965508
0.28134306
0.26613532
0.25092759
0.23571986
0.22051212
0.20530439
0.19009666
0.17488893
0.15968119
0.14447346
0.12926573
0.114058
0.098850265
0.083642533
0.068434801
0.053227069
0.038019337
0.022811605
0.0076038698
1.5211089
1.5040614
1.4885525
1.4733215
1.457792
1.4420299
1.4262563
1.4105814
1.3950003
1.3794731
1.3639743
1.3484982
1.3330462
1.3176186
1.3022131
1.2868265
1.2714561
1.2561002
1.2407574
1.2254266
1.2101067
1.1947967
1.1794956
1.1642028
1.1489174
1.1336389
1.1183666
1.1031001
1.0878388
1.0725824
1.0573303
1.0420823
1.026838
1.0115971
0.9963593
0.98112434
0.96589198
0.950662
0.93543419
0.92020836
0.90498434
0.88976197
0.87454111
0.85932161
0.84410336
0.82888623
0.81367014
0.79845497
0.78324064
0.76802707
0.75281419
0.73760193
0.72239023
0.70717902
0.69196827
0.67675791
0.66154791
0.64633823
0.63112883
0.61591968
0.60071075
0.58550201
0.57029343
0.555085
0.53987669
0.52466849
0.50946038
0.49425234
0.47904436
0.46383644
0.44862856
0.43342071
0.41821289
0.40300509
0.3877973
0.37258953
0.35738178
0.34217402
0.32696628
0.31175853
0.2965508
0.28134306
0.26613532
0.25092759
0.23571986
0.22051212
0.20530439
0.19009666
0.17488893
0.15968119
0.14447346
0.12926573
0.114058
0.098850265
0.083642533
0.068434801
0.053227069
0.038019337
0.022811605
0.0076038698
1.5216432
1.5047631
1.4889745
1.4734101
1.457712
1.44193
1.4261881
1.4105356
1.3949586
1.3794295
1.3639318
1.3484605
1.3330143
1.3175916
1.3021896
1.2868056
1.2714376
1.2560837
1.2407427
1.2254135
1.2100949
1.194786
1.179486
1.164194
1.1489095
1.1336317
1.11836
1.1030941
1.0878334
1.0725774
1.0573258
1.0420782
1.0268342
1.0115937
0.99635616
0.98112148
0.96588937
0.95065962
0.93543203
0.92020639
0.90498255
0.88976035
0.87453964
0.85932028
0.84410215
0.82888514
0.81366915
0.79845408
0.78323984
0.76802636
0.75281355
0.73760135
0.72238971
0.70717856
0.69196786
0.67675755
0.66154759
0.64633795
0.63112859
0.61591947
0.60071056
0.58550185
0.5702933
0.55508488
0.53987659
0.52466841
0.50946031
0.49425228
0.47904432
0.4638364
0.44862853
0.43342068
0.41821287
0.40300507
0.38779729
0.37258953
0.35738177
0.34217402
0.32696627
0.31175853
0.29655079
0.28134306
0.26613532
0.25092759
0.23571986
0.22051212
0.20530439
0.19009666
0.17488893
0.15968119
0.14447346
0.12926573
0.114058
0.098850265
0.083642533
0.068434801
0.053227069
0.038019337
0.022811605
0.0076038694
1.5221856
1.5054197
1.4893099
1.4734315
1.4576039
1.4418242
1.4261182
1.410487
1.3949149
1.3793865
1.363892
1.3484261
1.3329854
1.3175669
1.3021681
1.2867866
1.2714206
1.2560686
1.2407292
1.2254014
1.210084
1.1947762
1.1794771
1.164186
1.1489022
1.133625
1.118354
1.1030886
1.0878284
1.0725729
1.0573217
1.0420744
1.0268308
1.0115906
0.99635337
0.98111895
0.96588708
0.95065754
0.93543014
0.92020469
0.90498102
0.88975897
0.87453839
0.85931916
0.84410115
0.82888424
0.81366835
0.79845336
0.7832392
0.76802579
0.75281305
0.73760091
0.72238932
0.70717822
0.69196756
0.67675729
0.66154737
0.64633776
0.63112842
0.61591932
0.60071044
0.58550175
0.57029321
0.55508481
0.53987654
0.52466836
0.50946027
0.49425225
0.47904429
0.46383638
0.44862851
0.43342067
0.41821286
0.40300507
0.38779729
0.37258952
0.35738177
0.34217402
0.32696627
0.31175853
0.29655079
0.28134306
0.26613532
0.25092759
0.23571986
0.22051212
0.20530439
0.19009666
0.17488893
0.15968119
0.14447346
0.12926573
0.114058
0.098850265
0.083642533
0.068434801
0.053227068
0.038019336
0.022811603
0.0076038687
1.5224875
1.5057418
1.4893997
1.4733438
1.4574688
1.4417099
1.4260322
1.4104173
1.3948536
1.3793319
1.3638446
1.3483855
1.3329505
1.3175365
1.3021412
1.2867626
1.2713991
1.2560493
1.2407119
1.2253857
1.2100698
1.1947633
1.1794654
1.1641753
1.1488925
1.1336162
1.118346
1.1030813
1.0878218
1.0725668
1.0573162
1.0420695
1.0268263
1.0115865
0.99634966
0.98111559
0.96588404
0.9506548
0.93542767
0.92020247
0.90497902
0.88975717
0.87453678
0.85931771
0.84409986
0.8288831
0.81366733
0.79845246
0.7832384
0.76802508
0.75281243
0.73760037
0.72238885
0.70717781
0.69196721
0.67675699
0.66154711
0.64633754
0.63112824
0.61591917
0.60071032
0.58550164
0.57029313
0.55508475
0.53987648
0.52466832
0.50946024
0.49425223
0.47904427
0.46383637
0.4486285
0.43342066
0.41821285
0.40300506
0.38779729
0.37258952
0.35738176
0.34217402
0.32696627
0.31175853
0.29655079
0.28134306
0.26613532
0.25092759
0.23571986
0.22051212
0.20530439
0.19009666
0.17488893
0.15968119
0.14447346
0.12926573
0.114058
0.098850265
0.083642533
0.0684348
0.053227068
0.038019335
0.022811602
0.007603868
)
;

boundaryField
{
    top
    {
        type            zeroGradient;
    }
    inlet
    {
        type            fixedValue;
        value           uniform 1.53103;
    }
    outlet
    {
        type            fixedValue;
        value           uniform 0;
    }
    bottom
    {
        type            zeroGradient;
    }
    back
    {
        type            empty;
    }
    front
    {
        type            empty;
    }
}


// ************************************************************************* //
