/*--------------------------------*- C++ -*----------------------------------*\
| =========                 |                                                 |
| \\      /  F ield         | OpenFOAM: The Open Source CFD Toolbox           |
|  \\    /   O peration     | Version:  4.1                                   |
|   \\  /    A nd           | Web:      www.OpenFOAM.org                      |
|    \\/     M anipulation  |                                                 |
\*---------------------------------------------------------------------------*/
FoamFile
{
    version     2.0;
    format      ascii;
    class       surfaceScalarField;
    location    "12";
    object      phi;
}
// * * * * * * * * * * * * * * * * * * * * * * * * * * * * * * * * * * * * * //

dimensions      [0 3 -1 0 0 0 0];

internalField   nonuniform List<scalar> 
1890
(
0.0027083837
2.5263746e-06
0.0027001761
8.2084334e-06
0.0026904149
9.7611237e-06
0.0026819255
8.4888414e-06
0.0026753795
6.5452872e-06
0.0026703287
5.0501857e-06
0.0026662174
4.1107921e-06
0.0026627262
3.4907333e-06
0.0026597206
3.0051413e-06
0.0026571306
2.5896675e-06
0.00265489
2.2403316e-06
0.0026529317
1.9579694e-06
0.0026511994
1.7321299e-06
0.002649652
1.5472065e-06
0.0026482615
1.3904083e-06
0.0026470073
1.2541181e-06
0.0026458729
1.1343131e-06
0.0026448443
1.0284498e-06
0.0026439099
9.3441435e-07
0.0026430595
8.5034308e-07
0.0026422847
7.7471959e-07
0.0026415783
7.0637694e-07
0.0026409339
6.4441921e-07
0.0026403458
5.881161e-07
0.0026398089
5.3685175e-07
0.0026393188
4.9009111e-07
0.0026388715
4.4737656e-07
0.0026384632
4.0830942e-07
0.0026380906
3.725471e-07
0.0026377509
3.3978521e-07
0.0026374411
3.0975803e-07
0.0026371589
2.8222533e-07
0.002636902
2.5697578e-07
0.0026366682
2.338161e-07
0.0026364556
2.1257532e-07
0.0026362626
1.9309528e-07
0.0026360874
1.7523543e-07
0.0026359285
1.5886452e-07
0.0026357847
1.4386559e-07
0.0026356546
1.3012852e-07
0.0026355371
1.1755507e-07
0.002635431
1.0605211e-07
0.0026353355
9.5536522e-08
0.0026352496
8.5929068e-08
0.0026351725
7.7159084e-08
0.0026351034
6.9158893e-08
0.0026350415
6.1868269e-08
0.0026349863
5.5229346e-08
0.0026349372
4.9190842e-08
0.0026348935
4.370339e-08
0.0026348548
3.8723505e-08
0.0026348206
3.4209297e-08
0.0026347905
3.0124167e-08
0.0026347641
2.6432837e-08
0.002634741
2.3104736e-08
0.0026347209
2.0110295e-08
0.0026347035
1.7424046e-08
0.0026346885
1.502114e-08
0.0026346756
1.2880162e-08
0.0026346647
1.0979886e-08
0.0026346554
9.3018662e-09
0.0026346476
7.827456e-09
0.002634641
6.5402334e-09
0.0026346356
5.4232929e-09
0.0026346312
4.4615839e-09
0.0026346276
3.639483e-09
0.0026346246
2.943066e-09
0.0026346223
2.3579019e-09
0.0026346204
1.8712796e-09
0.0026346189
1.4701723e-09
0.0026346178
1.1433889e-09
0.0026346169
8.7960841e-10
0.0026346163
6.6945569e-10
0.0026346158
5.0356545e-10
0.0026346154
3.7455518e-10
0.0026346151
2.7507626e-10
0.0026346149
1.9970076e-10
0.0026346148
1.4297639e-10
0.0026346147
1.0120435e-10
0.0026346146
7.0525106e-11
0.0026346146
4.8639041e-11
0.0026346145
3.2925759e-11
0.0026346145
2.2135942e-11
0.0026346145
1.4520345e-11
0.0026346145
9.5430835e-12
0.0026346145
6.0270744e-12
0.0026346145
3.8990945e-12
0.0026346145
2.3182271e-12
0.0026346145
1.4725002e-12
0.0026346145
7.2383342e-13
0.0026346145
3.5462894e-13
0.0026346145
-9.072824e-14
0.0026346145
-4.1613699e-13
0.0026346145
-9.0769668e-13
0.0026346145
-1.7811755e-12
0.0026346145
-2.7579634e-12
0.0026346145
-5.1999408e-12
0.0026346145
-6.9143587e-12
0.0026346145
-1.4597455e-11
-1.5149695e-11
0.0066986868
2.804745e-06
0.0066952548
1.1641482e-05
0.0066892069
1.5809177e-05
0.0066823231
1.5372162e-05
0.0066757367
1.3131004e-05
0.0066697067
1.1079678e-05
0.0066641719
9.6451721e-06
0.0066590774
8.5848003e-06
0.0066544256
7.6565582e-06
0.0066502237
6.7913312e-06
0.0066464498
6.0139552e-06
0.00664306
5.3475524e-06
0.0066400062
4.7857091e-06
0.0066372469
4.306373e-06
0.0066347482
3.8889662e-06
0.0066324818
3.5203733e-06
0.0066304231
3.192954e-06
0.0066285503
2.9012494e-06
0.0066268442
2.6403933e-06
0.0066252885
2.4059994e-06
0.0066238688
2.1943927e-06
0.0066225725
2.0026525e-06
0.0066213885
1.8284417e-06
0.0066203067
1.6698279e-06
0.0066193184
1.5251563e-06
0.0066184155
1.393e-06
0.0066175908
1.2721203e-06
0.0066168376
1.1614448e-06
0.0066161502
1.0600329e-06
0.0066155229
9.6705764e-07
0.0066149509
8.8178131e-07
0.0066144296
8.0354707e-07
0.0066139548
7.3176237e-07
0.0066135228
6.6589566e-07
0.0066131299
6.0546312e-07
0.006612773
5.5002771e-07
0.006612449
4.9918864e-07
0.0066121553
4.5258203e-07
0.0066118894
4.098723e-07
0.0066116488
3.7075357e-07
0.0066114314
3.3494249e-07
0.0066112353
3.0218018e-07
0.0066110586
2.7222601e-07
0.0066108997
2.448597e-07
0.006610757
2.19876e-07
0.0066106291
1.9708695e-07
0.0066105147
1.7631719e-07
0.0066104125
1.574062e-07
0.0066103215
1.4020423e-07
0.0066102407
1.2457456e-07
0.006610169
1.1038983e-07
0.0066101057
9.753416e-08
0.00661005
8.5899888e-08
0.006610001
7.5389547e-08
0.0066099582
6.5912769e-08
0.006609921
5.738795e-08
0.0066098887
4.9739372e-08
0.0066098608
4.2898606e-08
0.0066098369
3.6801737e-08
0.0066098165
3.1390496e-08
0.0066097992
2.6609746e-08
0.0066097846
2.2408542e-08
0.0066097724
1.87379e-08
0.0066097623
1.5551851e-08
0.006609754
1.2805657e-08
0.0066097472
1.0457023e-08
0.0066097417
8.4646695e-09
0.0066097373
6.7896458e-09
0.0066097337
5.39425e-09
0.006609731
4.2434306e-09
0.0066097288
3.3038222e-09
0.0066097272
2.5450803e-09
0.0066097259
1.9389622e-09
0.0066097249
1.4605502e-09
0.0066097242
1.0872135e-09
0.0066097237
7.9963921e-10
0.0066097233
5.8071288e-10
0.0066097231
4.1641122e-10
0.0066097229
2.9456692e-10
0.0066097227
2.0563196e-10
0.0066097226
1.4145593e-10
0.0066097226
9.5995102e-11
0.0066097225
6.4121328e-11
0.0066097225
4.2264254e-11
0.0066097225
2.7367508e-11
0.0066097225
1.7504125e-11
0.0066097225
1.0958299e-11
0.0066097225
6.7729012e-12
0.0066097225
4.0033409e-12
0.0066097225
2.2679552e-12
0.0066097225
1.0010621e-12
0.0066097225
1.6671282e-13
0.0066097225
-8.4014487e-13
0.0066097225
-1.627291e-12
0.0066097225
-3.4815e-12
0.0066097225
-4.832616e-12
0.0066097225
-8.6694587e-12
0.0066097225
-1.0804889e-11
0.0066097225
-1.7820764e-11
-1.8559646e-11
0.0094599198
2.028701e-06
0.0094618268
9.7353283e-06
0.0094633151
1.4320706e-05
0.0094638589
1.4827662e-05
0.0094637246
1.3264658e-05
0.0094631559
1.1647976e-05
0.009462279
1.0521688e-05
0.0094611745
9.6889373e-06
0.0094599274
8.9034289e-06
0.0094586147
8.1037513e-06
0.0094572911
7.3372989e-06
0.0094559895
6.6489638e-06
0.009454729
6.0460205e-06
0.0094535219
5.5133767e-06
0.009452376
5.0347032e-06
0.0094512959
4.6004098e-06
0.009450283
4.205761e-06
0.0094493369
3.8473231e-06
0.0094484558
3.5214636e-06
0.0094476372
3.2244955e-06
0.0094468784
2.9531588e-06
0.0094461763
2.7047715e-06
0.0094455276
2.4771219e-06
0.0094449291
2.2683008e-06
0.0094443776
2.0766149e-06
0.0094438701
1.9005454e-06
0.0094434034
1.7387403e-06
0.0094429749
1.589991e-06
0.0094425817
1.4532178e-06
0.0094422213
1.3274434e-06
0.0094418913
1.2117852e-06
0.0094415895
1.1054368e-06
0.0094413136
1.0076661e-06
0.0094410617
9.178007e-07
0.0094408319
8.3522744e-07
0.0094406226
7.5938059e-07
0.009440432
6.8974252e-07
0.0094402588
6.2583381e-07
0.0094401015
5.6721474e-07
0.0094399588
5.1347696e-07
0.0094398295
4.6424542e-07
0.0094397125
4.1917105e-07
0.0094396068
3.7793291e-07
0.0094395115
3.4023181e-07
0.0094394256
3.0579268e-07
0.0094393483
2.7435881e-07
0.009439279
2.4569423e-07
0.0094392168
2.1957878e-07
0.0094391612
1.9581042e-07
0.0094391116
1.7420084e-07
0.0094390674
1.5457769e-07
0.0094390282
1.3678068e-07
0.0094389934
1.2066374e-07
0.0094389628
1.060914e-07
0.0094389357
9.2940685e-08
0.009438912
8.1097704e-08
0.0094388913
7.0459335e-08
0.0094388733
6.0929908e-08
0.0094388577
5.24225e-08
0.0094388443
4.4855857e-08
0.0094388327
3.8155496e-08
0.0094388229
3.2250865e-08
0.0094388146
2.707634e-08
0.0094388076
2.2568841e-08
0.0094388017
1.8668951e-08
0.0094387968
1.5318999e-08
0.0094387929
1.2464324e-08
0.0094387896
1.0051877e-08
0.009438787
8.0316539e-09
0.0094387849
6.3556265e-09
0.0094387832
4.9791928e-09
0.0094387819
3.8602957e-09
0.0094387809
2.9608036e-09
0.0094387801
2.2455859e-09
0.0094387795
1.6836985e-09
0.009438779
1.2473447e-09
0.0094387787
9.1287637e-10
0.0094387785
6.595644e-10
0.0094387783
4.7043955e-10
0.0094387782
3.3093407e-10
0.0094387781
2.2967977e-10
0.009438778
1.5703134e-10
0.009438778
1.0589947e-10
0.009438778
7.0231157e-11
0.0094387779
4.5972964e-11
0.0094387779
2.9498631e-11
0.0094387779
1.8724662e-11
0.0094387779
1.1525293e-11
0.0094387779
7.0086879e-12
0.0094387779
3.9381909e-12
0.0094387779
2.0010329e-12
0.0094387779
5.7309112e-13
0.0094387779
-7.8479066e-13
0.0094387779
-2.017453e-12
0.0094387779
-3.9449974e-12
0.0094387779
-5.579225e-12
0.0094387779
-9.1874111e-12
0.0094387779
-1.1258019e-11
0.0094387779
-1.7193317e-11
-1.793482e-11
0.011183365
1.0244892e-06
0.011187787
5.3136005e-06
0.011193949
8.1582309e-06
0.011200044
8.731979e-06
0.011205329
7.9793603e-06
0.011209856
7.1208159e-06
0.011213836
6.541359e-06
0.011217391
6.1331945e-06
0.01122056
5.7344287e-06
0.011223362
5.3009873e-06
0.011225833
4.8664207e-06
0.011228017
4.4651818e-06
0.011229956
4.1063207e-06
0.011231687
3.7827437e-06
0.011233235
3.4857274e-06
0.011234625
3.2107563e-06
0.011235874
2.9563239e-06
0.011237
2.7215139e-06
0.011238017
2.5049721e-06
0.011238936
2.3050861e-06
0.011239769
2.120344e-06
0.011240524
1.9495004e-06
0.01124121
1.7915024e-06
0.011241832
1.6454214e-06
0.011242399
1.5103848e-06
0.011242914
1.3855895e-06
0.011243382
1.2702826e-06
0.011243808
1.1637822e-06
0.011244196
1.0654484e-06
0.011244549
9.7469873e-07
0.01124487
8.9098137e-07
0.011245161
8.1379303e-07
0.011245426
7.4265583e-07
0.011245667
6.7713452e-07
0.011245885
6.1681491e-07
0.011246083
5.6132051e-07
0.011246263
5.1029214e-07
0.011246425
4.6340391e-07
0.011246572
4.203443e-07
0.011246705
3.8083146e-07
0.011246825
3.4459547e-07
0.011246932
3.1139261e-07
0.011247029
2.8098906e-07
0.011247116
2.5317443e-07
0.011247194
2.277465e-07
0.011247264
2.0452362e-07
0.011247327
1.8333104e-07
0.011247382
1.6401255e-07
0.011247432
1.4641766e-07
0.011247475
1.3041236e-07
0.011247514
1.1586752e-07
0.011247548
1.0266893e-07
0.011247578
9.0706548e-08
0.011247605
7.9883644e-08
0.011247627
7.0107011e-08
0.011247647
6.1295326e-08
0.011247664
5.3370035e-08
0.011247679
4.6262836e-08
0.011247692
3.9907326e-08
0.011247702
3.4245744e-08
0.011247711
2.9221259e-08
0.011247719
2.4784012e-08
0.011247725
2.0884186e-08
0.01124773
1.7477579e-08
0.011247734
1.4519403e-08
0.011247737
1.1969459e-08
0.01124774
9.7867443e-09
0.011247742
7.9343866e-09
0.011247744
6.3748727e-09
0.011247745
5.0747246e-09
0.011247746
4.0002644e-09
0.011247747
3.1220497e-09
0.011247747
2.4109119e-09
0.011247748
1.8420884e-09
0.011247748
1.3914434e-09
0.011247748
1.0393139e-09
0.011247748
7.6674677e-10
0.011247749
5.5906573e-10
0.011247749
4.0215881e-10
0.011247749
2.8583764e-10
0.011247749
2.0013152e-10
0.011247749
1.3848899e-10
0.011247749
9.4178108e-11
0.011247749
6.3400325e-11
0.011247749
4.176837e-11
0.011247749
2.735865e-11
0.011247749
1.7349729e-11
0.011247749
1.1033756e-11
0.011247749
6.5657996e-12
0.011247749
3.9278983e-12
0.011247749
1.832978e-12
0.011247749
5.9974572e-13
0.011247749
-8.7043038e-13
0.011247749
-1.8435985e-12
0.011247749
-3.6103214e-12
0.011247749
-4.6760635e-12
0.011247749
-7.5625312e-12
0.011247749
-9.244939e-12
0.011247749
-1.5183399e-11
-1.6101361e-11
0.012008697
2.8355808e-11
0.012014011
8.2995946e-11
0.012022169
2.6832613e-11
0.0120309
3.3413748e-12
0.012038878
5.4625858e-11
0.012045998
1.5771196e-10
0.012052539
2.2995117e-10
0.012058672
2.5399323e-10
0.012064406
2.5387926e-10
0.012069706
2.5050737e-10
0.012074572
2.4575008e-10
0.012079037
2.3222315e-10
0.012083143
2.1062542e-10
0.012086925
1.8153934e-10
0.012090411
1.5077006e-10
0.012093621
1.1750983e-10
0.012096577
8.5297985e-11
0.012099299
5.2116634e-11
0.012101804
2.2047539e-11
0.012104109
-8.1432145e-12
0.012106229
-3.404933e-11
0.012108179
-5.8400611e-11
0.01210997
-7.8215976e-11
0.012111616
-9.664623e-11
0.012113126
-1.1042003e-10
0.012114512
-1.2307727e-10
0.012115782
-1.3125151e-10
0.012116946
-1.3824209e-10
0.012118012
-1.4082147e-10
0.012118987
-1.4246212e-10
0.012119878
-1.4004648e-10
0.012120692
-1.3678616e-10
0.012121435
-1.2988778e-10
0.012122112
-1.2266257e-10
0.012122729
-1.1251734e-10
0.01212329
-1.0245031e-10
0.012123801
-9.0144332e-11
0.012124264
-7.8574903e-11
0.012124684
-6.5559338e-11
0.012125065
-5.3672493e-11
0.01212541
-4.0950062e-11
0.012125721
-2.9815751e-11
0.012126003
-1.8437434e-11
0.012126256
-8.8832639e-12
0.012126483
9.0235638e-13
0.012126688
8.6718706e-12
0.012126871
1.6219671e-11
0.012127035
2.1918146e-11
0.012127182
2.7499767e-11
0.012127312
3.1348682e-11
0.012127428
3.5171535e-11
0.012127531
3.7595898e-11
0.012127621
4.0200184e-11
0.012127701
4.1641305e-11
0.012127771
4.3389292e-11
0.012127833
4.4272675e-11
0.012127886
4.557902e-11
0.012127932
4.6124375e-11
0.012127972
4.7058137e-11
0.012128006
4.7322846e-11
0.012128035
4.790002e-11
0.01212806
4.7736536e-11
0.012128081
4.7721403e-11
0.012128098
4.6943419e-11
0.012128113
4.6197784e-11
0.012128125
4.4623906e-11
0.012128135
4.2999628e-11
0.012128142
4.0615225e-11
0.012128149
3.8215555e-11
0.012128154
3.514342e-11
0.012128158
3.2154694e-11
0.012128161
2.8699236e-11
0.012128163
2.5498315e-11
0.012128165
2.2001702e-11
0.012128167
1.8919008e-11
0.012128168
1.5739012e-11
0.012128168
1.310922e-11
0.012128169
1.0467867e-11
0.012128169
8.4331849e-12
0.01212817
6.4499595e-12
0.01212817
5.0736119e-12
0.01212817
3.6955772e-12
0.01212817
2.8576792e-12
0.01212817
1.9746508e-12
0.01212817
1.551512e-12
0.01212817
9.7355737e-13
0.01212817
7.6423953e-13
0.01212817
3.4751851e-13
0.01212817
2.3736103e-13
0.01212817
-1.6584629e-13
0.01212817
-3.301165e-13
0.01212817
-8.9267533e-13
0.01212817
-1.1914835e-12
0.01212817
-1.9836385e-12
0.01212817
-2.3451149e-12
0.01212817
-3.1373281e-12
0.01212817
-3.902841e-12
0.01212817
-4.9804576e-12
0.01212817
-9.4306225e-12
-1.0945095e-11
0.012008696
-1.0245842e-06
0.01201401
-5.3140558e-06
0.012022168
-8.1585744e-06
0.012030899
-8.7320237e-06
0.012038878
-7.9791997e-06
0.012045998
-7.120574e-06
0.012052539
-6.5410487e-06
0.012058672
-6.1328251e-06
0.012064406
-5.7340161e-06
0.012069706
-5.3005546e-06
0.012074572
-4.8659912e-06
0.012079037
-4.4647752e-06
0.012083143
-4.1059502e-06
0.012086925
-3.7824198e-06
0.012090411
-3.4854558e-06
0.012093621
-3.2105426e-06
0.012096578
-2.9561693e-06
0.012099299
-2.7214191e-06
0.012101804
-2.5049335e-06
0.012104109
-2.3051016e-06
0.012106229
-2.1204075e-06
0.012108179
-1.9496079e-06
0.01210997
-1.7916469e-06
0.012111616
-1.6455989e-06
0.012113126
-1.5105885e-06
0.012114512
-1.3858153e-06
0.012115782
-1.2705239e-06
0.012116946
-1.1640351e-06
0.012118012
-1.0657066e-06
0.012118987
-9.7495858e-07
0.012119878
-8.9123698e-07
0.012120692
-8.1404132e-07
0.012121434
-7.4289174e-07
0.012122112
-6.7735595e-07
0.012122729
-6.1701791e-07
0.01212329
-5.6150397e-07
0.0121238
-5.1045344e-07
0.012124264
-4.6354317e-07
0.012124684
-4.2046011e-07
0.012125065
-3.809249e-07
0.01212541
-3.4466622e-07
0.012125721
-3.1144265e-07
0.012126002
-2.8101889e-07
0.012126255
-2.531864e-07
0.012126483
-2.2774149e-07
0.012126688
-2.0450437e-07
0.012126871
-1.8329877e-07
0.012127035
-1.6396985e-07
0.012127181
-1.463656e-07
0.012127312
-1.3035325e-07
0.012127428
-1.1580214e-07
0.01212753
-1.0259909e-07
0.012127621
-9.0632632e-08
0.012127701
-7.980702e-08
0.012127771
-7.0027714e-08
0.012127832
-6.1214291e-08
0.012127886
-5.3287098e-08
0.012127932
-4.6178767e-08
0.012127972
-3.982193e-08
0.012128006
-3.4159736e-08
0.012128035
-2.9134598e-08
0.01212806
-2.4697563e-08
0.012128081
-2.0798123e-08
0.012128098
-1.7392891e-08
0.012128113
-1.4436471e-08
0.012128125
-1.1889386e-08
0.012128134
-9.7099808e-09
0.012128142
-7.8619563e-09
0.012128149
-6.3071534e-09
0.012128154
-5.0125575e-09
0.012128158
-3.9437829e-09
0.012128161
-3.0717543e-09
0.012128163
-2.3666311e-09
0.012128165
-1.8039943e-09
0.012128166
-1.3590378e-09
0.012128167
-1.0124482e-09
0.012128168
-7.4470373e-10
0.012128169
-5.4153401e-10
0.012128169
-3.883014e-10
0.012128169
-2.7527225e-10
0.01212817
-1.9205818e-10
0.01212817
-1.3261336e-10
0.01212817
-8.9806039e-11
0.01212817
-6.0350792e-11
0.01212817
-3.9525592e-11
0.01212817
-2.5919985e-11
0.01212817
-1.6340785e-11
0.01212817
-1.0577351e-11
0.01212817
-6.4129769e-12
0.01212817
-4.3580611e-12
0.01212817
-2.6528506e-12
0.01212817
-2.2599127e-12
0.01212817
-1.5039256e-12
0.01212817
-1.7723605e-12
0.01212817
-8.1079257e-13
0.01212817
-1.0386855e-12
0.01212817
6.0979257e-13
0.01212817
9.0324155e-13
0.01212817
9.676868e-13
-6.3346547e-13
0.011183365
-2.0286665e-06
0.011187787
-9.7351935e-06
0.011193949
-1.4320669e-05
0.011200044
-1.4827726e-05
0.011205328
-1.3264691e-05
0.011209855
-1.1647924e-05
0.011213835
-1.0521549e-05
0.011217391
-9.6887373e-06
0.01122056
-8.9031873e-06
0.011223362
-8.1034811e-06
0.011225833
-7.3370144e-06
0.011228017
-6.6486774e-06
0.011229956
-6.04575e-06
0.011231687
-5.5131318e-06
0.011233236
-5.0344966e-06
0.011234625
-4.6002431e-06
0.011235875
-4.2056411e-06
0.011237
-3.847246e-06
0.011238017
-3.5214324e-06
0.011238936
-3.224503e-06
0.011239769
-2.9532066e-06
0.011240524
-2.7048505e-06
0.01124121
-2.4772324e-06
0.011241833
-2.2684336e-06
0.011242399
-2.0767706e-06
0.011242914
-1.9007147e-06
0.011243382
-1.7389237e-06
0.011243808
-1.5901796e-06
0.011244196
-1.4534123e-06
0.011244549
-1.3276354e-06
0.011244869
-1.2119754e-06
0.011245161
-1.1056178e-06
0.011245426
-1.0078392e-06
0.011245666
-9.1795933e-07
0.011245885
-8.3537359e-07
0.011246083
-7.5950896e-07
0.011246262
-6.8985593e-07
0.011246425
-6.2592807e-07
0.011246571
-5.6729325e-07
0.011246704
-5.1353665e-07
0.011246824
-4.6429029e-07
0.011246932
-4.1919885e-07
0.011247028
-3.779478e-07
0.011247116
-3.4023222e-07
0.011247194
-3.0578288e-07
0.011247263
-2.7433756e-07
0.011247326
-2.4566561e-07
0.011247381
-2.1954172e-07
0.011247431
-1.9576869e-07
0.011247475
-1.7415328e-07
0.011247513
-1.5452747e-07
0.011247548
-1.3672653e-07
0.011247578
-1.2060836e-07
0.011247604
-1.0603334e-07
0.011247627
-9.2882101e-08
0.011247647
-8.1037117e-08
0.011247664
-7.0398647e-08
0.011247678
-6.0867671e-08
0.011247691
-5.2360405e-08
0.011247702
-4.4792689e-08
0.011247711
-3.8092956e-08
0.011247718
-3.2187982e-08
0.011247724
-2.70148e-08
0.011247729
-2.2507956e-08
0.011247734
-1.8610441e-08
0.011247737
-1.5262317e-08
0.01124774
-1.2411075e-08
0.011247742
-1.0001564e-08
0.011247744
-7.9857229e-09
0.011247745
-6.3134561e-09
0.011247746
-4.9419276e-09
0.011247747
-3.82714e-09
0.011247747
-2.9326305e-09
0.011247748
-2.2213668e-09
0.011247748
-1.664016e-09
0.011247748
-1.2310154e-09
0.011247748
-9.0033387e-10
0.011247748
-6.4952282e-10
0.011247748
-4.6324057e-10
0.011247749
-3.253186e-10
0.011247749
-2.2604944e-10
0.011247749
-1.5419774e-10
0.011247749
-1.0433902e-10
0.011247749
-6.8896601e-11
0.011247749
-4.5490928e-11
0.011247749
-2.8934177e-11
0.011247749
-1.8791362e-11
0.011247749
-1.1409694e-11
0.011247749
-7.5324591e-12
0.011247749
-4.3610332e-12
0.011247749
-3.180789e-12
0.011247749
-1.7636615e-12
0.011247749
-1.4780287e-12
0.011247749
-5.6605926e-13
0.011247749
2.1898762e-13
0.011247749
1.3742027e-12
0.011247749
4.5412139e-12
0.011247749
6.6568532e-12
0.011247749
1.3199001e-11
1.2931715e-11
0.009459919
-2.8046956e-06
0.009461826
-1.1641273e-05
0.0094633144
-1.5809001e-05
0.0094638583
-1.5372199e-05
0.0094637242
-1.3131225e-05
0.0094631555
-1.107993e-05
0.0094622788
-9.6453472e-06
0.0094611744
-8.5848732e-06
0.0094599273
-7.656549e-06
0.0094586147
-6.7912646e-06
0.0094572912
-6.0138497e-06
0.0094559897
-5.3474202e-06
0.0094547293
-4.7855659e-06
0.0094535221
-4.3062325e-06
0.0094523763
-3.8888414e-06
0.0094512962
-3.5202701e-06
0.0094502833
-3.1928771e-06
0.0094493372
-2.9011982e-06
0.0094484561
-2.6403687e-06
0.0094476375
-2.4059987e-06
0.0094468786
-2.1944155e-06
0.0094461765
-2.0026945e-06
0.0094455277
-1.8285016e-06
0.0094449291
-1.6699013e-06
0.0094443776
-1.5252419e-06
0.00944387
-1.3930935e-06
0.0094434033
-1.2722204e-06
0.0094429746
-1.1615477e-06
0.0094425814
-1.0601374e-06
0.0094422209
-9.6716026e-07
0.0094418908
-8.8188118e-07
0.0094415889
-8.036413e-07
0.0094413129
-7.3185062e-07
0.0094410609
-6.6597546e-07
0.0094408311
-6.0553463e-07
0.0094406217
-5.5008929e-07
0.0094404312
-4.9924098e-07
0.0094402579
-4.5262396e-07
0.0094401005
-4.0990492e-07
0.0094399578
-3.7077637e-07
0.0094398285
-3.3495691e-07
0.0094397115
-3.0218597e-07
0.0094396058
-2.7222475e-07
0.0094395104
-2.448515e-07
0.0094394245
-2.1986248e-07
0.0094393473
-1.9706821e-07
0.009439278
-1.7629477e-07
0.0094392158
-1.5738028e-07
0.0094391603
-1.4017616e-07
0.0094391107
-1.2454428e-07
0.0094390665
-1.1035841e-07
0.0094390273
-9.7501483e-08
0.0094389926
-8.5866777e-08
0.0094389619
-7.5355667e-08
0.009438935
-6.5878735e-08
0.0094389113
-5.7353432e-08
0.0094388906
-4.9704885e-08
0.0094388726
-4.2863784e-08
0.0094388571
-3.6767065e-08
0.0094388437
-3.1355757e-08
0.0094388322
-2.657547e-08
0.0094388224
-2.2374586e-08
0.0094388141
-1.8704835e-08
0.0094388071
-1.5519682e-08
0.0094388013
-1.2774978e-08
0.0094387964
-1.0427838e-08
0.0094387925
-8.437522e-09
0.0094387893
-6.7645487e-09
0.0094387867
-5.3716461e-09
0.0094387846
-4.2231942e-09
0.0094387829
-3.2862455e-09
0.0094387816
-2.5299464e-09
0.0094387806
-1.9264118e-09
0.0094387799
-1.4502023e-09
0.0094387793
-1.0790845e-09
0.0094387789
-7.9329785e-10
0.0094387785
-5.7611009e-10
0.0094387783
-4.130438e-10
0.0094387781
-2.9238149e-10
0.009438778
-2.0418536e-10
0.0094387779
-1.4074072e-10
0.0094387779
-9.559077e-11
0.0094387778
-6.4093826e-11
0.0094387778
-4.2306615e-11
0.0094387778
-2.7622421e-11
0.0094387778
-1.7698241e-11
0.0094387778
-1.1296376e-11
0.0094387778
-7.0753172e-12
0.0094387778
-4.5153181e-12
0.0094387778
-2.8106005e-12
0.0094387778
-1.8322645e-12
0.0094387778
-1.1279382e-12
0.0094387778
-5.3425565e-13
0.0094387778
8.8683906e-14
0.0094387778
1.2255009e-12
0.0094387778
2.4229484e-12
0.0094387778
6.1992363e-12
0.0094387778
9.4491548e-12
0.0094387778
2.237917e-11
2.3483287e-11
0.0066986866
-2.5262379e-06
0.0066952546
-8.2082959e-06
0.0066892068
-9.7611022e-06
0.0066823231
-8.4890112e-06
0.0066757368
-6.545647e-06
0.0066697067
-5.0506192e-06
0.0066641718
-4.111173e-06
0.0066590773
-3.4910049e-06
0.0066544255
-3.0053123e-06
0.0066502236
-2.5897707e-06
0.0066464497
-2.2403895e-06
0.0066430599
-1.9579968e-06
0.0066400062
-1.7321338e-06
0.006637247
-1.547199e-06
0.0066347483
-1.390395e-06
0.006632482
-1.2541077e-06
0.0066304233
-1.1343052e-06
0.0066285505
-1.0284486e-06
0.0066268444
-9.3441662e-07
0.0066252887
-8.5035224e-07
0.006623869
-7.7473168e-07
0.0066225726
-7.063948e-07
0.0066213885
-6.4443854e-07
0.0066203068
-5.8813957e-07
0.0066193184
-5.3687501e-07
0.0066184154
-4.9011689e-07
0.0066175906
-4.4740079e-07
0.0066168374
-4.0833483e-07
0.0066161499
-3.7256974e-07
0.0066155225
-3.3980779e-07
0.0066149505
-3.0977697e-07
0.0066144291
-2.8224335e-07
0.0066139543
-2.5698952e-07
0.0066135221
-2.3382829e-07
0.0066131292
-2.12583e-07
0.0066127723
-1.9310118e-07
0.0066124483
-1.7523686e-07
0.0066121546
-1.5886419e-07
0.0066118886
-1.4386116e-07
0.006611648
-1.3012265e-07
0.0066114306
-1.1754561e-07
0.0066112345
-1.0604163e-07
0.0066110578
-9.552313e-08
0.0066108989
-8.591519e-08
0.0066107562
-7.7142944e-08
0.0066106283
-6.9142754e-08
0.0066105139
-6.185053e-08
0.0066104118
-5.5212084e-08
0.0066103208
-4.9172484e-08
0.00661024
-4.3685811e-08
0.0066101684
-3.8705228e-08
0.0066101051
-3.4191999e-08
0.0066100494
-3.010639e-08
0.0066100005
-2.6416086e-08
0.0066099577
-2.3087654e-08
0.0066099205
-2.0094244e-08
0.0066098882
-1.7407728e-08
0.0066098604
-1.5005815e-08
0.0066098365
-1.2864666e-08
0.0066098161
-1.0965399e-08
0.0066097988
-9.2873141e-09
0.0066097843
-7.813964e-09
0.0066097721
-6.526851e-09
0.0066097621
-5.411084e-09
0.0066097537
-4.4496543e-09
0.006609747
-3.6288424e-09
0.0066097415
-2.9328811e-09
0.0066097371
-2.3491053e-09
0.0066097336
-1.8630288e-09
0.0066097308
-1.4633363e-09
0.0066097287
-1.137127e-09
0.006609727
-8.7471261e-10
0.0066097258
-6.6504286e-10
0.0066097248
-5.0038259e-10
0.0066097241
-3.7172303e-10
0.0066097236
-2.7328698e-10
0.0066097232
-1.9806496e-10
0.006609723
-1.4216592e-10
0.0066097228
-1.0037688e-10
0.0066097227
-7.0335576e-11
0.0066097226
-4.8266781e-11
0.0066097225
-3.3043475e-11
0.0066097225
-2.1981806e-11
0.0066097224
-1.477302e-11
0.0066097224
-9.4607968e-12
0.0066097224
-6.315007e-12
0.0066097224
-3.8565164e-12
0.0066097224
-2.6591985e-12
0.0066097224
-1.4993804e-12
0.0066097224
-1.1520298e-12
0.0066097224
-5.2663697e-13
0.0066097224
-4.3084934e-13
0.0066097224
1.6666503e-13
0.0066097224
3.3306867e-13
0.0066097224
1.2366432e-12
0.0066097224
2.0528755e-12
0.0066097224
4.2111916e-12
0.0066097224
7.0979003e-12
0.0066097224
1.9440534e-11
2.0740375e-11
0.0027083842
0.0027001762
0.002690415
0.0026819256
0.0026753795
0.0026703285
0.002666217
0.0026627257
0.0026597202
0.0026571302
0.0026548896
0.0026529315
0.0026511992
0.0026496519
0.0026482614
0.0026470072
0.0026458729
0.0026448444
0.0026439099
0.0026430596
0.0026422848
0.0026415784
0.0026409339
0.0026403458
0.0026398089
0.0026393188
0.0026388714
0.0026384631
0.0026380905
0.0026377507
0.002637441
0.0026371588
0.0026369018
0.002636668
0.0026364554
0.0026362623
0.0026360871
0.0026359283
0.0026357844
0.0026356543
0.0026355368
0.0026354308
0.0026353353
0.0026352494
0.0026351723
0.0026351031
0.0026350413
0.0026349861
0.0026349369
0.0026348933
0.0026348546
0.0026348204
0.0026347903
0.0026347639
0.0026347408
0.0026347208
0.0026347034
0.0026346884
0.0026346755
0.0026346646
0.0026346553
0.0026346475
0.002634641
0.0026346356
0.0026346311
0.0026346275
0.0026346246
0.0026346222
0.0026346204
0.0026346189
0.0026346178
0.0026346169
0.0026346162
0.0026346157
0.0026346154
0.0026346151
0.0026346149
0.0026346148
0.0026346147
0.0026346146
0.0026346146
0.0026346145
0.0026346145
0.0026346145
0.0026346145
0.0026346145
0.0026346145
0.0026346145
0.0026346145
0.0026346145
0.0026346145
0.0026346145
0.0026346145
0.0026346145
0.0026346145
0.0026346145
0.0026346145
0.0026346145
0.0026346145
)
;

boundaryField
{
    top
    {
        type            calculated;
        value           uniform 0;
    }
    inlet
    {
        type            calculated;
        value           nonuniform List<scalar> 10(-0.0027109089 -0.0066989644 -0.0094591426 -0.01118236 -0.012007671 -0.01200767 -0.01118236 -0.0094591417 -0.0066989641 -0.0027109099);
    }
    outlet
    {
        type            calculated;
        value           nonuniform List<scalar> 10(0.0026346145 0.0066097225 0.0094387779 0.011247749 0.01212817 0.01212817 0.011247749 0.0094387778 0.0066097224 0.0026346145);
    }
    bottom
    {
        type            calculated;
        value           uniform 0;
    }
    back
    {
        type            empty;
        value           nonuniform 0();
    }
    front
    {
        type            empty;
        value           nonuniform 0();
    }
}


// ************************************************************************* //
