/*--------------------------------*- C++ -*----------------------------------*\
| =========                 |                                                 |
| \\      /  F ield         | OpenFOAM: The Open Source CFD Toolbox           |
|  \\    /   O peration     | Version:  4.1                                   |
|   \\  /    A nd           | Web:      www.OpenFOAM.org                      |
|    \\/     M anipulation  |                                                 |
\*---------------------------------------------------------------------------*/
FoamFile
{
    version     2.0;
    format      ascii;
    class       volVectorField;
    location    "12";
    object      U;
}
// * * * * * * * * * * * * * * * * * * * * * * * * * * * * * * * * * * * * * //

dimensions      [0 1 -1 0 0 0 0];

internalField   nonuniform List<vector> 
1000
(
(0.2806437 0.00021218297 0)
(0.28016543 0.00059849171 0)
(0.27913801 0.00063649626 0)
(0.27813095 0.00047220888 0)
(0.27734032 0.00030324634 0)
(0.276746 0.00020208475 0)
(0.27627826 0.00015336077 0)
(0.275888 0.00012649863 0)
(0.27555298 0.00010582835 0)
(0.27526411 8.8337669e-05 0)
(0.2750149 7.4704106e-05 0)
(0.27479844 6.4827062e-05 0)
(0.27460817 5.7594873e-05 0)
(0.27443898 5.1853657e-05 0)
(0.27428734 4.6925277e-05 0)
(0.27415076 4.25504e-05 0)
(0.27402739 3.8651617e-05 0)
(0.27391566 3.5178427e-05 0)
(0.27381424 3.2069242e-05 0)
(0.27372201 2.9264133e-05 0)
(0.27363803 2.6718082e-05 0)
(0.27356149 2.4400094e-05 0)
(0.27349167 2.2287305e-05 0)
(0.27342796 2.0359746e-05 0)
(0.27336982 1.859931e-05 0)
(0.27331673 1.6989432e-05 0)
(0.27326828 1.5515778e-05 0)
(0.27322405 1.4165641e-05 0)
(0.27318368 1.2928048e-05 0)
(0.27314686 1.1793018e-05 0)
(0.27311329 1.0751807e-05 0)
(0.27308269 9.7963556e-06 0)
(0.27305482 8.9196071e-06 0)
(0.27302946 8.1149998e-06 0)
(0.27300638 7.3767726e-06 0)
(0.27298542 6.6995043e-06 0)
(0.27296638 6.0784261e-06 0)
(0.27294912 5.5090062e-06 0)
(0.27293347 4.9872551e-06 0)
(0.27291932 4.5093484e-06 0)
(0.27290652 4.0719227e-06 0)
(0.27289497 3.6717293e-06 0)
(0.27288455 3.3059141e-06 0)
(0.27287518 2.9717022e-06 0)
(0.27286675 2.6666634e-06 0)
(0.27285919 2.3884227e-06 0)
(0.27285243 2.1349076e-06 0)
(0.27284638 1.9040845e-06 0)
(0.27284099 1.694191e-06 0)
(0.27283619 1.5034936e-06 0)
(0.27283194 1.3305013e-06 0)
(0.27282817 1.1737448e-06 0)
(0.27282485 1.0319734e-06 0)
(0.27282193 9.0395132e-07 0)
(0.27281938 7.8863566e-07 0)
(0.27281715 6.8498915e-07 0)
(0.27281521 5.9214167e-07 0)
(0.27281354 5.0921735e-07 0)
(0.2728121 4.354794e-07 0)
(0.27281087 3.7017245e-07 0)
(0.27280983 3.1265481e-07 0)
(0.27280895 2.622561e-07 0)
(0.27280821 2.1839831e-07 0)
(0.27280759 1.8046883e-07 0)
(0.27280709 1.4793433e-07 0)
(0.27280667 1.2022826e-07 0)
(0.27280633 9.6857433e-08 0)
(0.27280606 7.7301218e-08 0)
(0.27280584 6.1112663e-08 0)
(0.27280567 4.7826955e-08 0)
(0.27280554 3.7055367e-08 0)
(0.27280544 2.8399022e-08 0)
(0.27280536 2.1537155e-08 0)
(0.2728053 1.6144451e-08 0)
(0.27280525 1.197277e-08 0)
(0.27280522 8.7691667e-09 0)
(0.2728052 6.3542971e-09 0)
(0.27280518 4.5416492e-09 0)
(0.27280517 3.2134924e-09 0)
(0.27280516 2.2381307e-09 0)
(0.27280515 1.5461356e-09 0)
(0.27280515 1.047304e-09 0)
(0.27280515 7.0758941e-10 0)
(0.27280515 4.6474357e-10 0)
(0.27280514 3.0836566e-10 0)
(0.27280514 1.9437073e-10 0)
(0.27280514 1.2766595e-10 0)
(0.27280514 7.4095709e-11 0)
(0.27280514 4.7381213e-11 0)
(0.27280514 1.8992723e-11 0)
(0.27280514 7.0812023e-12 0)
(0.27280514 -1.5059406e-11 0)
(0.27280514 -3.0853081e-11 0)
(0.27280514 -6.1642709e-11 0)
(0.27280514 -1.1080333e-10 0)
(0.27280514 -1.7522275e-10 0)
(0.27280514 -3.0621569e-10 0)
(0.27280514 -4.2474984e-10 0)
(0.27280515 -8.5500197e-10 0)
(0.27280515 -8.7340807e-10 0)
(0.69349295 0.0002553768 0)
(0.69386783 0.0010731919 0)
(0.69319664 0.0014585537 0)
(0.69231305 0.0013861475 0)
(0.69155247 0.0011342776 0)
(0.6909143 0.00090537224 0)
(0.69033465 0.0007496759 0)
(0.68978805 0.00064278405 0)
(0.68927943 0.00055681355 0)
(0.68881757 0.00048148038 0)
(0.68840386 0.00041691472 0)
(0.68803376 0.0003640464 0)
(0.68770119 0.0003214669 0)
(0.68740099 0.00028654558 0)
(0.6871293 0.00025700195 0)
(0.68688305 0.00023142652 0)
(0.68665956 0.00020903914 0)
(0.68645643 0.0001893287 0)
(0.68627151 0.00017187128 0)
(0.68610297 0.00015630003 0)
(0.68594921 0.00014231912 0)
(0.68580884 0.00012970254 0)
(0.68568065 0.00011827691 0)
(0.68556355 0.0001079025 0)
(0.68545656 9.846204e-05 0)
(0.68535881 8.9855087e-05 0)
(0.68526951 8.1995713e-05 0)
(0.68518796 7.4809936e-05 0)
(0.6851135 6.8233799e-05 0)
(0.68504554 6.2211162e-05 0)
(0.68498355 5.6692549e-05 0)
(0.68492704 5.1633817e-05 0)
(0.68487556 4.6995645e-05 0)
(0.68482869 4.2742604e-05 0)
(0.68478606 3.884287e-05 0)
(0.68474731 3.5267502e-05 0)
(0.68471212 3.1990317e-05 0)
(0.6846802 2.8987331e-05 0)
(0.68465128 2.6236738e-05 0)
(0.6846251 2.3718443e-05 0)
(0.68460144 2.1414109e-05 0)
(0.68458007 1.9306767e-05 0)
(0.68456081 1.738089e-05 0)
(0.68454347 1.562206e-05 0)
(0.68452789 1.4017064e-05 0)
(0.68451391 1.255361e-05 0)
(0.68450139 1.1220435e-05 0)
(0.6844902 1.0007052e-05 0)
(0.68448022 8.9038633e-06 0)
(0.68447135 7.901948e-06 0)
(0.68446347 6.9931689e-06 0)
(0.6844565 6.1699786e-06 0)
(0.68445036 5.4255236e-06 0)
(0.68444495 4.7534669e-06 0)
(0.68444022 4.1480749e-06 0)
(0.68443608 3.6040463e-06 0)
(0.68443249 3.1165844e-06 0)
(0.68442939 2.6812338e-06 0)
(0.68442672 2.2939361e-06 0)
(0.68442444 1.9508746e-06 0)
(0.68442249 1.6485255e-06 0)
(0.68442085 1.3835221e-06 0)
(0.68441947 1.1527062e-06 0)
(0.68441832 9.5301534e-07 0)
(0.68441738 7.8154606e-07 0)
(0.6844166 6.3546914e-07 0)
(0.68441596 5.1210174e-07 0)
(0.68441545 4.0884354e-07 0)
(0.68441505 3.2325614e-07 0)
(0.68441472 2.5301501e-07 0)
(0.68441447 1.9598486e-07 0)
(0.68441428 1.5017358e-07 0)
(0.68441413 1.138001e-07 0)
(0.68441401 8.5246639e-08 0)
(0.68441393 6.3112262e-08 0)
(0.68441387 4.6155914e-08 0)
(0.68441382 3.3340464e-08 0)
(0.68441379 2.3771082e-08 0)
(0.68441376 1.6731318e-08 0)
(0.68441375 1.1613568e-08 0)
(0.68441374 7.9553838e-09 0)
(0.68441373 5.368271e-09 0)
(0.68441372 3.5769403e-09 0)
(0.68441372 2.3441195e-09 0)
(0.68441372 1.5198552e-09 0)
(0.68441372 9.6482563e-10 0)
(0.68441371 6.092407e-10 0)
(0.68441371 3.7020028e-10 0)
(0.68441371 2.2302465e-10 0)
(0.68441371 1.1728187e-10 0)
(0.68441371 4.978053e-11 0)
(0.68441371 -8.1684384e-12 0)
(0.68441371 -7.2275834e-11 0)
(0.68441371 -1.3864205e-10 0)
(0.68441371 -2.7680084e-10 0)
(0.68441371 -3.976168e-10 0)
(0.68441371 -7.2818344e-10 0)
(0.68441371 -9.0884649e-10 0)
(0.68441372 -1.6973203e-09 0)
(0.68441371 -1.8144437e-09 0)
(0.97914567 0.00020424454 0)
(0.98029584 0.0010157495 0)
(0.98024913 0.0015470342 0)
(0.97997462 0.0016438753 0)
(0.97986135 0.0014971688 0)
(0.9798576 0.0013102294 0)
(0.97983686 0.0011647179 0)
(0.97975294 0.0010553545 0)
(0.97962416 0.0009585643 0)
(0.97948061 0.00086451379 0)
(0.97933863 0.00077552179 0)
(0.97920189 0.00069582563 0)
(0.97906972 0.00062657032 0)
(0.97894202 0.00056635361 0)
(0.97881977 0.0005132483 0)
(0.97870405 0.00046587609 0)
(0.97859542 0.0004234268 0)
(0.9784939 0.00038533882 0)
(0.97839929 0.00035110015 0)
(0.9783113 0.00032022177 0)
(0.97822965 0.00029227217 0)
(0.97815403 0.00026689534 0)
(0.97808413 0.00024380105 0)
(0.9780196 0.00022274648 0)
(0.97796011 0.00020352248 0)
(0.97790532 0.00018594666 0)
(0.97785494 0.0001698597 0)
(0.97780864 0.00015512231 0)
(0.97776614 0.00014161207 0)
(0.97772717 0.00012922065 0)
(0.97769146 0.00011785143 0)
(0.97765879 0.00010741784 0)
(0.97762891 9.7841931e-05 0)
(0.97760162 8.9053318e-05 0)
(0.97757672 8.0988147e-05 0)
(0.97755402 7.3588361e-05 0)
(0.97753335 6.6800955e-05 0)
(0.97751454 6.0577477e-05 0)
(0.97749745 5.4873479e-05 0)
(0.97748194 4.9648166e-05 0)
(0.97746788 4.4863979e-05 0)
(0.97745515 4.0486344e-05 0)
(0.97744364 3.6483347e-05 0)
(0.97743325 3.2825547e-05 0)
(0.97742388 2.9485717e-05 0)
(0.97741545 2.6438712e-05 0)
(0.97740787 2.3661261e-05 0)
(0.97740107 2.1131876e-05 0)
(0.97739499 1.8830684e-05 0)
(0.97738955 1.6739358e-05 0)
(0.97738471 1.4840985e-05 0)
(0.9773804 1.3120014e-05 0)
(0.97737658 1.1562142e-05 0)
(0.9773732 1.0154267e-05 0)
(0.97737022 8.8843759e-06 0)
(0.9773676 7.7414919e-06 0)
(0.97736531 6.7155582e-06 0)
(0.97736331 5.7973701e-06 0)
(0.97736157 4.978455e-06 0)
(0.97736007 4.2509924e-06 0)
(0.97735878 3.6077002e-06 0)
(0.97735768 3.0417626e-06 0)
(0.97735674 2.5467323e-06 0)
(0.97735595 2.1164801e-06 0)
(0.97735529 1.7451321e-06 0)
(0.97735474 1.4270548e-06 0)
(0.97735428 1.1568259e-06 0)
(0.97735391 9.2925132e-07 0)
(0.9773536 7.3936729e-07 0)
(0.97735336 5.8247988e-07 0)
(0.97735317 4.5417792e-07 0)
(0.97735301 3.5037529e-07 0)
(0.97735289 2.6732236e-07 0)
(0.9773528 2.0163835e-07 0)
(0.97735273 1.5030592e-07 0)
(0.97735268 1.1068349e-07 0)
(0.97735264 8.0484112e-08 0)
(0.97735261 5.7768971e-08 0)
(0.97735259 4.0911565e-08 0)
(0.97735257 2.857531e-08 0)
(0.97735256 1.9675901e-08 0)
(0.97735256 1.3350355e-08 0)
(0.97735255 8.9240085e-09 0)
(0.97735255 5.8729326e-09 0)
(0.97735254 3.8060914e-09 0)
(0.97735254 2.4248522e-09 0)
(0.97735254 1.5211181e-09 0)
(0.97735254 9.3241936e-10 0)
(0.97735254 5.5724013e-10 0)
(0.97735254 3.1278491e-10 0)
(0.97735254 1.4969881e-10 0)
(0.97735254 3.5608768e-11 0)
(0.97735254 -8.2207013e-11 0)
(0.97735254 -1.7973919e-10 0)
(0.97735254 -3.713485e-10 0)
(0.97735254 -5.1605024e-10 0)
(0.97735254 -9.0173936e-10 0)
(0.97735254 -1.1299442e-09 0)
(0.97735254 -1.831937e-09 0)
(0.97735254 -1.8808362e-09 0)
(1.157442 0.00012714981 0)
(1.15907 0.00069017981 0)
(1.1593913 0.0011100786 0)
(1.1595006 0.0012363883 0)
(1.1598653 0.0011717706 0)
(1.1604089 0.001059604 0)
(1.1609409 0.00096877442 0)
(1.1613739 0.00090131033 0)
(1.1617186 0.00084013457 0)
(1.1620116 0.00077681004 0)
(1.1622752 0.00071304244 0)
(1.1625146 0.00065301383 0)
(1.1627291 0.00059869716 0)
(1.1629195 0.00054977923 0)
(1.1630884 0.00050522639 0)
(1.1632395 0.00046428048 0)
(1.1633752 0.00042657306 0)
(1.1634976 0.0003918946 0)
(1.1636082 0.0003600288 0)
(1.163708 0.00033072992 0)
(1.1637984 0.00030375787 0)
(1.1638804 0.00027890411 0)
(1.1639547 0.00025599156 0)
(1.1640222 0.00023486571 0)
(1.1640836 0.00021538609 0)
(1.1641394 0.0001974241 0)
(1.1641902 0.00018086154 0)
(1.1642364 0.00016559092 0)
(1.1642784 0.00015151365 0)
(1.1643167 0.00013853969 0)
(1.1643514 0.00012658579 0)
(1.1643831 0.00011557551 0)
(1.1644118 0.00010543795 0)
(1.1644379 9.6107894e-05 0)
(1.1644616 8.7524734e-05 0)
(1.1644831 7.9632665e-05 0)
(1.1645026 7.2379698e-05 0)
(1.1645203 6.5717944e-05 0)
(1.1645362 5.9602713e-05 0)
(1.1645507 5.3992834e-05 0)
(1.1645637 4.8849846e-05 0)
(1.1645754 4.4138314e-05 0)
(1.164586 3.9825105e-05 0)
(1.1645955 3.5879706e-05 0)
(1.164604 3.2273575e-05 0)
(1.1646116 2.8980442e-05 0)
(1.1646185 2.5975716e-05 0)
(1.1646246 2.3236809e-05 0)
(1.16463 2.0742594e-05 0)
(1.1646348 1.8473707e-05 0)
(1.164639 1.6412065e-05 0)
(1.1646428 1.4541157e-05 0)
(1.1646461 1.2845604e-05 0)
(1.164649 1.1311423e-05 0)
(1.1646515 9.9256274e-06 0)
(1.1646537 8.6764571e-06 0)
(1.1646556 7.5529982e-06 0)
(1.1646573 6.5453799e-06 0)
(1.1646587 5.6444079e-06 0)
(1.1646598 4.8417314e-06 0)
(1.1646609 4.1294981e-06 0)
(1.1646617 3.5004991e-06 0)
(1.1646624 2.9478561e-06 0)
(1.164663 2.4651661e-06 0)
(1.1646635 2.046233e-06 0)
(1.1646638 1.6852244e-06 0)
(1.1646641 1.3764525e-06 0)
(1.1646644 1.1145509e-06 0)
(1.1646646 8.9430166e-07 0)
(1.1646647 7.1082235e-07 0)
(1.1646648 5.594243e-07 0)
(1.1646649 4.358004e-07 0)
(1.164665 3.3589495e-07 0)
(1.164665 2.5607691e-07 0)
(1.1646651 1.9300615e-07 0)
(1.1646651 1.4378485e-07 0)
(1.1646651 1.0581258e-07 0)
(1.1646651 7.6912454e-08 0)
(1.1646651 5.5176178e-08 0)
(1.1646652 3.9070201e-08 0)
(1.1646652 2.7277026e-08 0)
(1.1646652 1.8786342e-08 0)
(1.1646652 1.2741468e-08 0)
(1.1646652 8.5226522e-09 0)
(1.1646652 5.6047571e-09 0)
(1.1646652 3.6360018e-09 0)
(1.1646652 2.3109308e-09 0)
(1.1646652 1.4479319e-09 0)
(1.1646652 8.7587534e-10 0)
(1.1646652 5.1413452e-10 0)
(1.1646652 2.6199603e-10 0)
(1.1646652 9.948572e-11 0)
(1.1646652 -5.8246313e-11 0)
(1.1646652 -1.7201448e-10 0)
(1.1646652 -3.6576238e-10 0)
(1.1646652 -4.98205e-10 0)
(1.1646652 -8.311925e-10 0)
(1.1646652 -1.0339742e-09 0)
(1.1646652 -1.6753141e-09 0)
(1.1646652 -1.7680945e-09 0)
(1.2428233 4.277777e-05 0)
(1.2446783 0.00024131488 0)
(1.2451576 0.00039729627 0)
(1.245427 0.00045105668 0)
(1.2460071 0.00043365887 0)
(1.2468189 0.0003962967 0)
(1.2476392 0.00036567192 0)
(1.2483552 0.00034356097 0)
(1.2489701 0.00032364335 0)
(1.2495226 0.00030245484 0)
(1.2500371 0.00028048138 0)
(1.2505184 0.00025935135 0)
(1.2509639 0.00023993138 0)
(1.2513733 0.0002221953 0)
(1.2517489 0.00020580537 0)
(1.2520943 0.00019051385 0)
(1.2524126 0.00017622199 0)
(1.2527059 0.00016289296 0)
(1.252976 0.00015048446 0)
(1.2532246 0.00013893732 0)
(1.2534532 0.00012818898 0)
(1.2536635 0.00011818406 0)
(1.2538568 0.00010887545 0)
(1.2540344 0.00010022117 0)
(1.2541975 9.2181587e-05 0)
(1.2543472 8.4718748e-05 0)
(1.2544844 7.779636e-05 0)
(1.2546102 7.1380139e-05 0)
(1.2547254 6.5437601e-05 0)
(1.2548308 5.9938061e-05 0)
(1.2549272 5.485236e-05 0)
(1.2550153 5.0152956e-05 0)
(1.2550958 4.5813728e-05 0)
(1.2551691 4.1810085e-05 0)
(1.255236 3.8118784e-05 0)
(1.2552969 3.4718024e-05 0)
(1.2553522 3.1587241e-05 0)
(1.2554026 2.8707196e-05 0)
(1.2554482 2.6059788e-05 0)
(1.2554896 2.3628128e-05 0)
(1.2555271 2.1396359e-05 1.8711867e-33)
(1.255561 1.9349712e-05 0)
(1.2555916 1.7474339e-05 0)
(1.2556191 1.5757382e-05 0)
(1.255644 1.4186785e-05 0)
(1.2556663 1.2751377e-05 0)
(1.2556863 1.1440716e-05 0)
(1.2557043 1.0245138e-05 0)
(1.2557203 9.1556164e-06 0)
(1.2557346 8.1638243e-06 0)
(1.2557473 7.2620032e-06 0)
(1.2557586 6.4430255e-06 0)
(1.2557685 5.7002688e-06 0)
(1.2557773 5.027671e-06 0)
(1.2557851 4.4196172e-06 0)
(1.2557918 3.8709922e-06 0)
(1.2557977 3.3770634e-06 0)
(1.2558029 2.9335221e-06 0)
(1.2558073 2.5363742e-06 0)
(1.2558111 2.1819753e-06 0)
(1.2558144 1.8669197e-06 0)
(1.2558172 1.5880683e-06 0)
(1.2558195 1.3424515e-06 0)
(1.2558215 1.1272999e-06 0)
(1.2558231 9.3995685e-07 0)
(1.2558245 7.779138e-07 0)
(1.2558256 6.387454e-07 0)
(1.2558265 5.201548e-07 0)
(1.2558272 4.1992169e-07 0)
(1.2558278 3.3595359e-07 0)
(1.2558283 2.6625014e-07 0)
(1.2558286 2.0895711e-07 0)
(1.2558289 1.6233232e-07 0)
(1.2558291 1.2479538e-07 0)
(1.2558293 9.4896252e-08 0)
(1.2558294 7.1357488e-08 0)
(1.2558295 5.303498e-08 0)
(1.2558296 3.8950511e-08 0)
(1.2558296 2.8251411e-08 0)
(1.2558297 2.023488e-08 0)
(1.2558297 1.4301954e-08 0)
(1.2558297 9.9759606e-09 0)
(1.2558297 6.8603165e-09 0)
(1.2558297 4.6543553e-09 0)
(1.2558297 3.1105185e-09 0)
(1.2558297 2.0494965e-09 0)
(1.2558297 1.3258319e-09 0)
(1.2558297 8.413943e-10 0)
(1.2558297 5.1630332e-10 0)
(1.2558297 2.9816302e-10 0)
(1.2558297 1.4425849e-10 0)
(1.2558297 2.9159419e-11 0)
(1.2558297 -7.5513433e-11 2.947889e-35)
(1.2558297 -1.7112226e-10 0)
(1.2558297 -2.856637e-10 0)
(1.2558297 -3.7743305e-10 8.8436675e-36)
(1.2558297 -5.6155912e-10 0)
(1.2558297 -6.8562093e-10 0)
(1.2558297 -1.2226783e-09 0)
(1.2558297 -1.4405412e-09 0)
(1.2428231 -4.2778153e-05 0)
(1.2446782 -0.00024131566 0)
(1.2451576 -0.00039729965 0)
(1.245427 -0.00045105656 0)
(1.2460071 -0.00043364551 0)
(1.2468189 -0.00039626647 0)
(1.2476392 -0.00036562929 0)
(1.2483552 -0.00034351224 0)
(1.2489701 -0.00032359249 0)
(1.2495226 -0.00030240376 0)
(1.2500371 -0.00028043135 0)
(1.2505184 -0.00025930415 0)
(1.2509639 -0.00023988851 0)
(1.2513733 -0.00022215811 0)
(1.2517489 -0.00020577434 0)
(1.2520943 -0.00019048947 0)
(1.2524126 -0.00017620417 0)
(1.2527059 -0.00016288183 0)
(1.252976 -0.00015047957 0)
(1.2532246 -0.00013893845 0)
(1.2534532 -0.00012819532 0)
(1.2536635 -0.00011819526 0)
(1.2538568 -0.00010889071 0)
(1.2540344 -0.00010024012 0)
(1.2541975 -9.2203429e-05 0)
(1.2543472 -8.4743123e-05 0)
(1.2544844 -7.7822497e-05 0)
(1.2546102 -7.1407679e-05 0)
(1.2547254 -6.546579e-05 0)
(1.2548308 -5.9966571e-05 0)
(1.2549272 -5.4880494e-05 0)
(1.2550153 -5.0180426e-05 0)
(1.2550958 -4.5839917e-05 0)
(1.2551691 -4.1834802e-05 0)
(1.255236 -3.8141542e-05 0)
(1.2552969 -3.4738734e-05 0)
(1.2553522 -3.1605549e-05 0)
(1.2554025 -2.8723144e-05 0)
(1.2554482 -2.6073164e-05 0)
(1.2554896 -2.3639078e-05 0)
(1.255527 -2.1404787e-05 -1.8711867e-33)
(1.2555609 -1.9355857e-05 0)
(1.2555915 -1.7478205e-05 0)
(1.2556191 -1.5759255e-05 0)
(1.2556439 -1.418674e-05 0)
(1.2556663 -1.2749747e-05 0)
(1.2556863 -1.1437591e-05 0)
(1.2557042 -1.0240827e-05 0)
(1.2557202 -9.1502072e-06 0)
(1.2557345 -8.1575994e-06 0)
(1.2557472 -7.2550274e-06 0)
(1.2557585 -6.4355265e-06 0)
(1.2557685 -5.6922692e-06 0)
(1.2557773 -5.0193487e-06 0)
(1.255785 -4.4109618e-06 0)
(1.2557918 -3.8621318e-06 0)
(1.2557977 -3.3679616e-06 0)
(1.2558029 -2.9242842e-06 0)
(1.2558073 -2.5269635e-06 0)
(1.2558111 -2.1724878e-06 0)
(1.2558144 -1.8573311e-06 0)
(1.2558172 -1.5784882e-06 0)
(1.2558195 -1.332883e-06 0)
(1.2558215 -1.1178654e-06 0)
(1.2558231 -9.3068093e-07 0)
(1.2558245 -7.6893194e-07 0)
(1.2558256 -6.3009534e-07 0)
(1.2558265 -5.1196512e-07 0)
(1.2558272 -4.1222212e-07 0)
(1.2558278 -3.2885457e-07 0)
(1.2558283 -2.5975917e-07 0)
(1.2558286 -2.0314811e-07 0)
(1.2558289 -1.5717767e-07 0)
(1.2558291 -1.2033304e-07 0)
(1.2558293 -9.1064542e-08 0)
(1.2558294 -6.815778e-08 0)
(1.2558295 -5.0377519e-08 0)
(1.2558296 -3.6817139e-08 0)
(1.2558296 -2.6539382e-08 0)
(1.2558296 -1.8915958e-08 0)
(1.2558297 -1.3273067e-08 0)
(1.2558297 -9.2171542e-09 0)
(1.2558297 -6.2808701e-09 0)
(1.2558297 -4.2456533e-09 0)
(1.2558297 -2.7981615e-09 0)
(1.2558297 -1.8448057e-09 0)
(1.2558297 -1.1716138e-09 0)
(1.2558297 -7.6358001e-10 0)
(1.2558297 -4.6880119e-10 0)
(1.2558297 -3.2463359e-10 0)
(1.2558297 -2.0851663e-10 0)
(1.2558297 -1.9274385e-10 0)
(1.2558297 -1.5483446e-10 -2.947889e-35)
(1.2558297 -2.0173787e-10 0)
(1.2558297 -1.6748074e-10 0)
(1.2558297 -2.1037546e-10 -8.8436675e-36)
(1.2558297 -1.6537117e-10 0)
(1.2558297 -1.7238425e-10 0)
(1.2558297 -4.2674764e-10 0)
(1.2558297 -6.6376008e-10 0)
(1.157442 -0.00012715059 0)
(1.15907 -0.00069019368 0)
(1.1593912 -0.0011101005 0)
(1.1595005 -0.0012364056 0)
(1.1598652 -0.0011717746 0)
(1.1604088 -0.0010595932 0)
(1.1609408 -0.00096875201 0)
(1.1613739 -0.00090128054 0)
(1.1617186 -0.00084010039 0)
(1.1620116 -0.00077677335 0)
(1.1622752 -0.00071300504 0)
(1.1625146 -0.00065297739 0)
(1.1627291 -0.00059866341 0)
(1.1629195 -0.00054974927 0)
(1.1630885 -0.00050520118 0)
(1.1632395 -0.00046426037 0)
(1.1633752 -0.00042655841 0)
(1.1634977 -0.0003918853 0)
(1.1636082 -0.00036002479 0)
(1.1637081 -0.00033073073 0)
(1.1637985 -0.00030376326 0)
(1.1638804 -0.00027891347 0)
(1.1639547 -0.00025600453 0)
(1.1640223 -0.00023488162 0)
(1.1640836 -0.00021540459 0)
(1.1641394 -0.00019744454 0)
(1.1641902 -0.00018088356 0)
(1.1642364 -0.00016561388 0)
(1.1642784 -0.00015153723 0)
(1.1643166 -0.00013856328 0)
(1.1643514 -0.0001266091 0)
(1.164383 -0.000115598 0)
(1.1644118 -0.0001054594 0)
(1.1644379 -9.6127873e-05 0)
(1.1644616 -8.7543106e-05 0)
(1.164483 -7.9649115e-05 0)
(1.1645025 -7.2394203e-05 0)
(1.1645202 -6.5730315e-05 0)
(1.1645362 -5.9613026e-05 0)
(1.1645506 -5.4001005e-05 0)
(1.1645636 -4.8856038e-05 0)
(1.1645753 -4.4142537e-05 0)
(1.1645859 -3.9827581e-05 0)
(1.1645954 -3.5880503e-05 0)
(1.1646039 -3.2272939e-05 0)
(1.1646116 -2.8978462e-05 0)
(1.1646184 -2.5972651e-05 0)
(1.1646245 -2.3232756e-05 0)
(1.1646299 -2.0737791e-05 0)
(1.1646347 -1.8468233e-05 0)
(1.164639 -1.6406114e-05 0)
(1.1646427 -1.4534771e-05 0)
(1.164646 -1.2838929e-05 0)
(1.1646489 -1.130447e-05 0)
(1.1646514 -9.9184995e-06 0)
(1.1646536 -8.6691359e-06 0)
(1.1646556 -7.5455622e-06 0)
(1.1646572 -6.5378046e-06 0)
(1.1646586 -5.636761e-06 0)
(1.1646598 -4.8339948e-06 0)
(1.1646608 -4.1217486e-06 0)
(1.1646616 -3.4927401e-06 0)
(1.1646623 -2.9401773e-06 0)
(1.1646629 -2.4575899e-06 0)
(1.1646634 -2.0388629e-06 0)
(1.1646638 -1.678097e-06 0)
(1.1646641 -1.3696705e-06 0)
(1.1646644 -1.1081479e-06 0)
(1.1646645 -8.8836844e-07 0)
(1.1646647 -7.0537704e-07 0)
(1.1646648 -5.5453012e-07 0)
(1.1646649 -4.3144668e-07 0)
(1.164665 -3.3211446e-07 0)
(1.164665 -2.528299e-07 0)
(1.1646651 -1.9029345e-07 0)
(1.1646651 -1.415401e-07 0)
(1.1646651 -1.0401686e-07 0)
(1.1646651 -7.5486012e-08 0)
(1.1646651 -5.4089419e-08 0)
(1.1646651 -3.8239784e-08 0)
(1.1646651 -2.6678163e-08 0)
(1.1646651 -1.8344849e-08 0)
(1.1646651 -1.244259e-08 0)
(1.1646651 -8.3045393e-09 0)
(1.1646651 -5.4697105e-09 0)
(1.1646651 -3.5383009e-09 0)
(1.1646651 -2.2655372e-09 0)
(1.1646651 -1.4207667e-09 0)
(1.1646651 -8.9449668e-10 0)
(1.1646651 -5.5602746e-10 0)
(1.1646651 -3.6353764e-10 0)
(1.1646651 -2.4486799e-10 0)
(1.1646651 -1.7663362e-10 0)
(1.1646651 -1.3489342e-10 0)
(1.1646651 -4.0468745e-11 0)
(1.1646651 6.5756995e-12 0)
(1.1646651 2.5316973e-10 0)
(1.1646651 3.7983663e-10 0)
(1.1646651 6.799417e-10 0)
(1.1646651 6.0544174e-10 0)
(0.97914558 -0.0002042427 0)
(0.98029576 -0.0010157358 0)
(0.98024904 -0.0015470202 0)
(0.97997454 -0.0016438716 0)
(0.97986129 -0.0014971734 0)
(0.97985757 -0.0013102353 0)
(0.97983684 -0.0011647188 0)
(0.97975292 -0.0010553483 0)
(0.97962415 -0.00095855207 0)
(0.97948061 -0.00086449728 0)
(0.97933864 -0.00077550278 0)
(0.9792019 -0.0006958053 0)
(0.97906974 -0.00062655012 0)
(0.97894204 -0.00056633461 0)
(0.9788198 -0.00051323177 0)
(0.97870409 -0.00046586251 0)
(0.97859545 -0.00042341681 0)
(0.97849394 -0.00038533228 0)
(0.97839932 -0.00035109722 0)
(0.97831133 -0.00032022203 0)
(0.97822968 -0.00029227565 0)
(0.97815406 -0.00026690144 0)
(0.97808414 -0.00024380964 0)
(0.97801961 -0.00022275694 0)
(0.97796011 -0.00020353469 0)
(0.97790532 -0.00018596001 0)
(0.97785492 -0.00016987406 0)
(0.97780862 -0.00015513709 0)
(0.97776611 -0.00014162718 0)
(0.97772713 -0.00012923554 0)
(0.97769142 -0.00011786603 0)
(0.97765873 -0.00010743168 0)
(0.97762885 -9.7855001e-05 0)
(0.97760155 -8.9065223e-05 0)
(0.97757664 -8.0998945e-05 0)
(0.97755394 -7.359775e-05 0)
(0.97753326 -6.6809072e-05 0)
(0.97751444 -6.0584109e-05 0)
(0.97749735 -5.4878814e-05 0)
(0.97748184 -4.965207e-05 0)
(0.97746777 -4.4866694e-05 0)
(0.97745504 -4.0487794e-05 0)
(0.97744353 -3.6483789e-05 0)
(0.97743314 -3.2824942e-05 0)
(0.97742377 -2.9484332e-05 0)
(0.97741534 -2.6436528e-05 0)
(0.97740777 -2.3658533e-05 0)
(0.97740097 -2.1128588e-05 0)
(0.97739489 -1.8827065e-05 0)
(0.97738946 -1.6735376e-05 0)
(0.97738461 -1.4836824e-05 0)
(0.97738031 -1.3115624e-05 0)
(0.97737649 -1.1557675e-05 0)
(0.97737311 -1.0149651e-05 0)
(0.97737014 -8.8797283e-06 0)
(0.97736752 -7.7367357e-06 0)
(0.97736523 -6.7107959e-06 0)
(0.97736323 -5.7925276e-06 0)
(0.9773615 -4.9736245e-06 0)
(0.97736001 -4.246116e-06 0)
(0.97735872 -3.602878e-06 0)
(0.97735762 -3.0369539e-06 0)
(0.97735669 -2.5420393e-06 0)
(0.9773559 -2.1118802e-06 0)
(0.97735524 -1.7407333e-06 0)
(0.97735469 -1.4228409e-06 0)
(0.97735424 -1.1528951e-06 0)
(0.97735387 -9.2558628e-07 0)
(0.97735357 -7.3605429e-07 0)
(0.97735333 -5.7948757e-07 0)
(0.97735314 -4.515682e-07 0)
(0.97735299 -3.4810048e-07 0)
(0.97735287 -2.6542464e-07 0)
(0.97735278 -2.0005054e-07 0)
(0.97735271 -1.4904888e-07 0)
(0.97735266 -1.0967864e-07 0)
(0.97735262 -7.9743998e-08 0)
(0.97735259 -5.7208025e-08 0)
(0.97735257 -4.0537607e-08 0)
(0.97735256 -2.8306882e-08 0)
(0.97735255 -1.9528829e-08 0)
(0.97735254 -1.3249685e-08 0)
(0.97735253 -8.8927579e-09 0)
(0.97735253 -5.8482145e-09 0)
(0.97735253 -3.8242509e-09 0)
(0.97735253 -2.4312849e-09 0)
(0.97735253 -1.5586105e-09 0)
(0.97735253 -9.5560372e-10 0)
(0.97735253 -6.1801391e-10 0)
(0.97735253 -3.6946889e-10 0)
(0.97735253 -2.5815495e-10 0)
(0.97735253 -1.5088317e-10 0)
(0.97735253 -1.0890332e-10 0)
(0.97735253 -2.5443432e-11 0)
(0.97735253 7.2366925e-11 0)
(0.97735253 1.8250354e-10 0)
(0.97735253 5.3895328e-10 0)
(0.97735253 7.6477283e-10 0)
(0.97735253 1.7558384e-09 0)
(0.97735252 1.9551266e-09 0)
(0.69349292 -0.00025536845 0)
(0.69386782 -0.0010731706 0)
(0.69319662 -0.0014585377 0)
(0.69231304 -0.0013861527 0)
(0.69155247 -0.0011343062 0)
(0.6909143 -0.00090541295 0)
(0.69033465 -0.00074971464 0)
(0.68978805 -0.0006428129 0)
(0.68927942 -0.00055683161 0)
(0.68881756 -0.00048149017 0)
(0.68840385 -0.00041691863 0)
(0.68803376 -0.00036404625 0)
(0.68770119 -0.00032146395 0)
(0.687401 -0.00028654133 0)
(0.68712931 -0.00025699749 0)
(0.68688307 -0.00023142282 0)
(0.68665958 -0.00020903648 0)
(0.68645645 -0.00018932739 0)
(0.68627153 -0.00017187118 0)
(0.68610299 -0.00015630124 0)
(0.68594922 -0.00014232138 0)
(0.68580886 -0.00012970585 0)
(0.68568066 -0.00011828094 0)
(0.68556355 -0.00010790723 0)
(0.68545656 -9.8467147e-05 0)
(0.6853588 -8.986055e-05 0)
(0.6852695 -8.2001237e-05 0)
(0.68518794 -7.4815525e-05 0)
(0.68511347 -6.8239188e-05 0)
(0.68504551 -6.2216361e-05 0)
(0.68498351 -5.6697327e-05 0)
(0.684927 -5.1638223e-05 0)
(0.68487551 -4.6999489e-05 0)
(0.68482863 -4.274595e-05 0)
(0.68478599 -3.8845571e-05 0)
(0.68474724 -3.526966e-05 0)
(0.68471205 -3.1991825e-05 0)
(0.68468012 -2.8988305e-05 0)
(0.6846512 -2.6237102e-05 0)
(0.68462502 -2.3718338e-05 0)
(0.68460135 -2.1413486e-05 0)
(0.68457999 -1.9305762e-05 0)
(0.68456073 -1.737947e-05 0)
(0.68454339 -1.5620368e-05 0)
(0.68452781 -1.4015075e-05 0)
(0.68451383 -1.2551452e-05 0)
(0.68450131 -1.1218084e-05 0)
(0.68449013 -1.0004626e-05 0)
(0.68448015 -8.9013332e-06 0)
(0.68447128 -7.8994069e-06 0)
(0.6844634 -6.9905786e-06 0)
(0.68445644 -6.1674195e-06 0)
(0.68445029 -5.4229512e-06 0)
(0.68444489 -4.7509415e-06 0)
(0.68444016 -4.1455492e-06 0)
(0.68443603 -3.6015756e-06 0)
(0.68443244 -3.1141242e-06 0)
(0.68442934 -2.6788313e-06 0)
(0.68442668 -2.2915536e-06 0)
(0.68442439 -1.9485632e-06 0)
(0.68442245 -1.6462564e-06 0)
(0.68442082 -1.3813441e-06 0)
(0.68441944 -1.1505982e-06 0)
(0.68441829 -9.5102912e-07 0)
(0.68441735 -7.7966451e-07 0)
(0.68441657 -6.3373774e-07 0)
(0.68441594 -5.1050281e-07 0)
(0.68441543 -4.0741822e-07 0)
(0.68441503 -3.2198208e-07 0)
(0.68441471 -2.5192122e-07 0)
(0.68441446 -1.950421e-07 0)
(0.68441426 -1.494035e-07 0)
(0.68441411 -1.1316632e-07 0)
(0.684414 -8.4760265e-08 0)
(0.68441392 -6.2732175e-08 0)
(0.68441386 -4.5891537e-08 0)
(0.68441381 -3.3149071e-08 0)
(0.68441378 -2.3659441e-08 0)
(0.68441375 -1.6658616e-08 0)
(0.68441374 -1.1591798e-08 0)
(0.68441373 -7.9472967e-09 0)
(0.68441372 -5.3878451e-09 0)
(0.68441371 -3.592178e-09 0)
(0.68441371 -2.3763351e-09 0)
(0.68441371 -1.541237e-09 0)
(0.68441371 -9.9836897e-10 0)
(0.68441371 -6.3091503e-10 0)
(0.68441371 -4.0851435e-10 0)
(0.68441371 -2.5567909e-10 0)
(0.6844137 -1.723392e-10 0)
(0.6844137 -1.0374541e-10 0)
(0.6844137 -7.1436659e-11 0)
(0.6844137 -9.351111e-12 0)
(0.6844137 3.5351417e-11 0)
(0.6844137 1.3542527e-10 0)
(0.6844137 2.4829262e-10 0)
(0.68441371 5.5638702e-10 0)
(0.68441371 8.1895972e-10 0)
(0.68441371 2.2034402e-09 0)
(0.6844137 2.5185325e-09 0)
(0.2806438 -0.00021217317 0)
(0.28016547 -0.00059848059 0)
(0.27913802 -0.00063649629 0)
(0.27813095 -0.00047222493 0)
(0.27734032 -0.00030327581 0)
(0.27674599 -0.00020211822 0)
(0.27627823 -0.00015338933 0)
(0.27588796 -0.00012651871 0)
(0.27555293 -0.00010584101 0)
(0.27526406 -8.8345571e-05 0)
(0.27501486 -7.4709029e-05 0)
(0.2747984 -6.4830097e-05 0)
(0.27460814 -5.7596486e-05 0)
(0.27443897 -5.1854579e-05 0)
(0.27428732 -4.692581e-05 0)
(0.27415076 -4.2551003e-05 0)
(0.27402739 -3.865219e-05 0)
(0.27391566 -3.5179176e-05 0)
(0.27381424 -3.2069959e-05 0)
(0.27372202 -2.9265009e-05 0)
(0.27363804 -2.6718885e-05 0)
(0.27356149 -2.4401004e-05 0)
(0.27349167 -2.2288091e-05 0)
(0.27342797 -2.0360588e-05 0)
(0.27336982 -1.8599978e-05 0)
(0.27331673 -1.6990108e-05 0)
(0.27326827 -1.5516256e-05 0)
(0.27322404 -1.4166106e-05 0)
(0.27318367 -1.2928296e-05 0)
(0.27314685 -1.1793231e-05 0)
(0.27311327 -1.0751803e-05 0)
(0.27308267 -9.7963134e-06 0)
(0.2730548 -8.9193509e-06 0)
(0.27302943 -8.114701e-06 0)
(0.27300636 -7.376277e-06 0)
(0.27298539 -6.6989796e-06 0)
(0.27296636 -6.0777244e-06 0)
(0.27294909 -5.5082854e-06 0)
(0.27293345 -4.9863862e-06 0)
(0.27291929 -4.5084827e-06 0)
(0.27290649 -4.0709359e-06 0)
(0.27289494 -3.6707613e-06 0)
(0.27288452 -3.3048557e-06 0)
(0.27287515 -2.9706846e-06 0)
(0.27286672 -2.6655799e-06 0)
(0.27285917 -2.387392e-06 0)
(0.2728524 -2.1338348e-06 0)
(0.27284635 -1.9030788e-06 0)
(0.27284096 -1.6931591e-06 0)
(0.27283617 -1.5025327e-06 0)
(0.27283191 -1.3295273e-06 0)
(0.27282815 -1.1728459e-06 0)
(0.27282483 -1.0310677e-06 0)
(0.27282191 -9.0311718e-07 0)
(0.27281936 -7.8780017e-07 0)
(0.27281713 -6.8422405e-07 0)
(0.2728152 -5.9137761e-07 0)
(0.27281353 -5.0851906e-07 0)
(0.27281209 -4.3478659e-07 0)
(0.27281086 -3.6954502e-07 0)
(0.27280982 -3.1203652e-07 0)
(0.27280894 -2.6170166e-07 0)
(0.2728082 -2.1785889e-07 0)
(0.27280759 -1.7999492e-07 0)
(0.27280708 -1.4747942e-07 0)
(0.27280666 -1.1983817e-07 0)
(0.27280633 -9.6490161e-08 0)
(0.27280606 -7.6998347e-08 0)
(0.27280584 -6.0832124e-08 0)
(0.27280567 -4.7606217e-08 0)
(0.27280554 -3.6854746e-08 0)
(0.27280544 -2.825266e-08 0)
(0.27280536 -2.1404251e-08 0)
(0.2728053 -1.6056764e-08 0)
(0.27280525 -1.1891618e-08 0)
(0.27280522 -8.725559e-09 0)
(0.2728052 -6.3088768e-09 0)
(0.27280518 -4.5257915e-09 0)
(0.27280517 -3.1902552e-09 0)
(0.27280516 -2.2395943e-09 0)
(0.27280515 -1.5346627e-09 0)
(0.27280515 -1.0559877e-09 0)
(0.27280515 -7.0135509e-10 0)
(0.27280514 -4.7764027e-10 0)
(0.27280514 -3.0447224e-10 0)
(0.27280514 -2.0864636e-10 0)
(0.27280514 -1.2638067e-10 0)
(0.27280514 -9.270234e-11 0)
(0.27280514 -5.0938233e-11 0)
(0.27280514 -4.2944215e-11 0)
(0.27280514 -1.5410861e-11 0)
(0.27280514 -1.31835e-11 0)
(0.27280514 2.5681416e-11 0)
(0.27280514 3.4088191e-11 0)
(0.27280514 8.5861599e-11 0)
(0.27280514 1.4656341e-10 0)
(0.27280514 2.65001e-10 0)
(0.27280514 5.0379692e-10 0)
(0.27280514 1.2434603e-09 0)
(0.27280515 1.2770108e-09 0)
)
;

boundaryField
{
    top
    {
        type            fixedValue;
        value           uniform (0 0 0);
    }
    inlet
    {