/*--------------------------------*- C++ -*----------------------------------*\
  =========                 |
  \\      /  F ield         | OpenFOAM: The Open Source CFD Toolbox
   \\    /   O peration     | Website:  https://openfoam.org
    \\  /    A nd           | Version:  6
     \\/     M anipulation  |
\*---------------------------------------------------------------------------*/
FoamFile
{
    version     2.0;
    format      ascii;
    class       volVectorField;
    location    "22";
    object      U_0;
}
// * * * * * * * * * * * * * * * * * * * * * * * * * * * * * * * * * * * * * //

dimensions      [0 1 -1 0 0 0 0];

internalField   nonuniform List<vector> 
9200
(
(0.0012422477 0.0013193425 -6.0893257e-20)
(0.014581122 -0.0025181633 4.7567734e-20)
(0.04030314 -0.0066793864 -3.9717387e-20)
(0.075656339 -0.010938702 -6.204836e-20)
(0.11879232 -0.015043232 1.9491272e-20)
(0.16846867 -0.018547934 3.3793226e-20)
(0.22359325 -0.021157483 -1.2738072e-20)
(0.28315049 -0.02272181 9.6363014e-21)
(0.346182 -0.023179446 1.7246772e-20)
(0.41175415 -0.022534335 1.5309159e-21)
(0.47893453 -0.020844252 -2.2187476e-20)
(0.54678388 -0.018209538 2.1424725e-20)
(0.61436071 -0.014761849 -4.183659e-20)
(0.68073651 -0.010652663 -2.1998713e-20)
(0.74501999 -0.0060410213 6.134306e-21)
(0.80638712 -0.0010832232 -2.6319422e-20)
(0.86412941 0.0040902269 2.6568571e-20)
(0.91777823 0.0095195006 2.4073704e-20)
(0.96693616 0.015342114 5.7545772e-23)
(1.0089555 0.018286769 -1.2066055e-21)
(0.0056066999 -0.0015335918 -1.7543343e-20)
(0.028320875 -0.0096637887 4.0966926e-20)
(0.064420316 -0.015910498 2.4317923e-20)
(0.11074073 -0.020669869 -1.1888117e-19)
(0.16511681 -0.024096708 -1.3141691e-20)
(0.22603688 -0.025979091 7.5234088e-20)
(0.29212845 -0.026223708 -3.6515872e-20)
(0.36208046 -0.024869089 -8.6257477e-21)
(0.43463118 -0.022026698 3.5340804e-20)
(0.50854533 -0.017861775 -4.4691971e-20)
(0.58260475 -0.012585079 -3.1467634e-20)
(0.65561824 -0.0064419587 7.4912816e-20)
(0.72644547 0.00030007673 3.9878485e-20)
(0.79403018 0.0073637444 -7.1190928e-20)
(0.85743801 0.014472736 1.5432649e-20)
(0.91589277 0.021357203 -3.875337e-20)
(0.96881886 0.027767683 -1.438121e-20)
(1.0159391 0.033546645 7.5840886e-20)
(1.0571516 0.038300799 3.2625918e-20)
(1.0907548 0.038997938 -8.6599877e-20)
(0.011395374 -0.0043041277 3.7723631e-20)
(0.04584045 -0.016279546 2.572251e-21)
(0.094125267 -0.023868952 2.306482e-20)
(0.15272405 -0.028214605 1.0062744e-21)
(0.21916132 -0.02996641 -4.2109802e-20)
(0.291627 -0.029211275 1.8989818e-20)
(0.36842973 -0.026119965 1.3860749e-20)
(0.44792778 -0.020979212 -5.182854e-20)
(0.52853527 -0.014128156 5.9095032e-20)
(0.60872067 -0.0059405111 1.4852578e-20)
(0.68702132 0.0031838694 -5.6517842e-20)
(0.76207678 0.012833581 -1.9177783e-20)
(0.83267214 0.022603218 8.9325621e-21)
(0.89778273 0.032110644 2.4690939e-20)
(0.95661282 0.041011784 -1.2113724e-20)
(1.0086208 0.049010218 2.9448964e-20)
(1.053532 0.055871037 -2.1243292e-20)
(1.0913653 0.061466702 -7.4656547e-20)
(1.1223114 0.065550654 -2.5527058e-20)
(1.1456127 0.06632313 5.0852156e-20)
(0.018705642 -0.0067401074 2.5094652e-20)
(0.067257742 -0.021659862 5.2342012e-20)
(0.12939843 -0.029499413 2.0365101e-20)
(0.20131351 -0.03227379 1.3198664e-20)
(0.28023275 -0.031217464 1.764346e-20)
(0.36402775 -0.026787502 -4.8964535e-20)
(0.45066968 -0.019484814 -2.637543e-20)
(0.53818625 -0.0099032133 0)
(0.62469915 0.0013433684 1.4697133e-20)
(0.70845422 0.013641824 -6.3751433e-21)
(0.78786439 0.026392565 -1.0189779e-19)
(0.86156408 0.039030576 -1.6215739e-20)
(0.92846176 0.051048731 6.8560868e-20)
(0.98778012 0.062018132 8.4969179e-23)
(1.0390765 0.071602734 -1.6604045e-21)
(1.0822389 0.079566167 2.3222791e-20)
(1.117459 0.085777495 -5.6629016e-21)
(1.1452023 0.090237871 -6.4646318e-20)
(1.1660872 0.092945408 -4.8865089e-20)
(1.1801713 0.093003528 7.2770028e-20)
(0.027563969 -0.0085556605 -3.9833652e-21)
(0.09246613 -0.025043494 -5.249695e-21)
(0.16983314 -0.031713221 5.790469e-20)
(0.25566881 -0.031567562 1.8924131e-20)
(0.34694619 -0.026510548 -3.2716017e-20)
(0.44122642 -0.017441164 1.2475458e-20)
(0.53616729 -0.0052521041 2.7201763e-21)
(0.6295253 0.0091099388 3.4836144e-20)
(0.71923418 0.024732218 5.8756554e-21)
(0.80346969 0.040764296 -1.3951452e-20)
(0.88071518 0.056436955 6.3352898e-20)
(0.94982197 0.071088326 -6.0416022e-20)
(1.0100498 0.084187911 -1.3873845e-19)
(1.0610782 0.095351788 -5.8706854e-21)
(1.1029864 0.10434674 8.7795091e-20)
(1.136203 0.11108276 0)
(1.1614334 0.11560032 1.0635797e-20)
(1.1795835 0.11807101 -1.6341206e-20)
(1.1916402 0.1186983 -9.1422719e-21)
(1.1982286 0.11712766 2.2031071e-20)
(0.037905091 -0.0094417217 -5.4583161e-21)
(0.12110273 -0.025656859 4.4509394e-21)
(0.2146259 -0.029473864 -8.9492109e-21)
(0.31444288 -0.024968148 2.9111238e-20)
(0.4173452 -0.014781214 -3.0152261e-20)
(0.52063883 -0.00031384722 -1.7408837e-20)
(0.6217546 0.017107859 3.8226304e-20)
(0.71831057 0.036169838 4.8116891e-21)
(0.80823261 0.055677965 -2.5760739e-20)
(0.88984504 0.074594811 7.2783231e-20)
(0.96193999 0.092061265 1.7360461e-22)
(1.0238182 0.10741961 -8.4600142e-20)
(1.0752903 0.12022662 0)
(1.1166361 0.1302506 4.1772705e-20)
(1.1485285 0.1374526 5.8522693e-21)
(1.1719327 0.14195472 -8.1668661e-20)
(1.1879949 0.14400366 -2.0620232e-20)
(1.1979397 0.14394605 -1.3119527e-20)
(1.2029595 0.14214139 -1.5519434e-20)
(1.2039469 0.13855327 4.2530092e-20)
(0.049558733 -0.0090873974 -1.7546697e-20)
(0.15253246 -0.022774328 -2.4316047e-21)
(0.26258706 -0.021888727 3.093882e-20)
(0.37584444 -0.011613049 3.8163115e-20)
(0.48903798 0.0046406483 -2.0420704e-20)
(0.59933485 0.02493983 -7.1246616e-20)
(0.70409602 0.047522955 -2.9082102e-20)
(0.80100453 0.070743771 8.17786e-20)
(0.88821613 0.093199198 9.1803551e-21)
(0.96445393 0.1137687 -2.5750189e-20)
(1.0290532 0.13162758 1.3938148e-20)
(1.0819536 0.14625205 -4.6420514e-21)
(1.1236378 0.15740572 0)
(1.1550266 0.16510476 2.851203e-20)
(1.1773475 0.16956716 -8.3194348e-20)
(1.1919956 0.17115341 -3.3024764e-20)
(1.2004047 0.17030898 8.5043468e-20)
(1.2039448 0.16752299 -4.6349074e-21)
(1.2038395 0.16325065 3.6940125e-21)
(1.2010186 0.15763001 2.8622649e-20)
(0.062243672 -0.0072083946 -3.2890166e-20)
(0.18585476 -0.015791527 -8.3251183e-20)
(0.31218783 -0.0083084456 2.3772571e-21)
(0.43774494 0.0089900407 7.1855747e-20)
(0.55937619 0.031942958 6.406645e-20)
(0.6742904 0.058105245 -7.3365505e-20)
(0.78000012 0.085334495 1.2556543e-23)
(0.87450664 0.11174824 8.8983258e-20)
(0.95645566 0.13586364 5.0723801e-20)
(1.0252051 0.15662542 -5.6619776e-20)
(1.0808152 0.17339295 -9.6385628e-20)
(1.1239688 0.18590909 -3.2998386e-21)
(1.1558384 0.19424491 4.4025119e-20)
(1.1779217 0.1987245 -6.9076104e-21)
(1.1918718 0.19984096 -1.3413838e-20)
(1.199346 0.19817486 2.0477328e-20)
(1.2018863 0.19432598 4.5896723e-20)
(1.2008434 0.18886841 -4.5788464e-20)
(1.1973355 0.18229001 -1.071956e-19)
(1.1921905 0.17481202 2.5964529e-20)
(0.075538228 -0.0035782602 -3.5716877e-20)
(0.21986579 -0.0043023776 -1.7646114e-19)
(0.36153761 0.011589622 8.4215544e-20)
(0.49768535 0.036902304 9.5090058e-20)
(0.62549975 0.066814649 5.9448434e-20)
(0.74246885 0.098450891 8.8949769e-21)
(0.84652069 0.12940777 -1.0969209e-19)
(0.9362413 0.15772315 0)
(1.0110023 0.18200959 -7.1772372e-20)
(1.0709711 0.20144958 -1.5930828e-20)
(1.1170236 0.21573561 5.7001647e-20)
(1.1505862 0.22498618 1.1449514e-20)
(1.1734388 0.22964038 -4.7535367e-20)
(1.1875119 0.23034282 -5.1099039e-20)
(1.1947084 0.22783463 2.5405096e-20)
(1.1967682 0.22286278 4.6879971e-20)
(1.195184 0.21611561 -5.8103081e-20)
(1.1911674 0.20818753 -1.122103e-19)
(1.1856539 0.19954506 -3.1176769e-21)
(1.1793071 0.19043959 2.8213244e-20)
(0.088864324 0.0019562131 -3.789199e-21)
(0.25306479 0.011886895 8.9637487e-20)
(0.40842476 0.03780656 -1.5759776e-20)
(0.55296718 0.07178046 -8.6893856e-20)
(0.68447942 0.10849484 4.6507191e-20)
(0.80099506 0.14480091 5.0333863e-20)
(0.90112394 0.17822532 5.7371364e-21)
(0.98427013 0.20693686 -1.0310438e-19)
(1.0506991 0.22984679 -2.6030761e-21)
(1.1014678 0.24654712 5.2560434e-20)
(1.1382548 0.25718571 6.2277516e-21)
(1.1631335 0.26232112 -2.0568868e-20)
(1.1783361 0.26276953 -7.8759511e-20)
(1.186044 0.25946113 -6.4331638e-21)
(1.1882311 0.25332255 4.5238951e-20)
(1.1865691 0.245194 3.8458825e-20)
(1.1823921 0.23578272 2.0438281e-20)
(1.1767092 0.22564677 -5.5572015e-20)
(1.1702501 0.21519411 1.2984067e-20)
(1.1635039 0.20467993 8.585717e-20)
(-0.0013434165 0.0014902579 -1.1403937e-21)
(-0.0049255439 0.0033050754 2.1322351e-21)
(-0.011166405 0.0042831838 9.7645175e-22)
(-0.01839005 0.004695837 -2.4430313e-21)
(-0.025607521 0.0047170701 -1.5315384e-21)
(-0.032374149 0.0044636877 1.6696104e-21)
(-0.038409949 0.0040207098 -7.2578806e-21)
(-0.043530554 0.0034498252 -6.292433e-21)
(-0.047631775 0.0027949916 1.1796527e-20)
(-0.050664789 0.0020871905 -1.0296292e-20)
(-0.052615524 0.0013479716 -2.0007275e-22)
(-0.053491411 0.00059203428 3.9024858e-21)
(-0.053312701 -0.00017081831 -6.6312614e-22)
(-0.052106535 -0.00093412337 2.4285437e-20)
(-0.049903187 -0.0016933354 3.0277319e-22)
(-0.046735564 -0.0024442954 -4.3736972e-20)
(-0.042641762 -0.0031825927 8.1267615e-21)
(-0.037656364 -0.0039064643 2.5639803e-20)
(-0.031781318 -0.0046147486 -4.7272877e-20)
(-0.02507197 -0.0052565138 -2.9980446e-20)
(-0.0017136393 0.0043402906 -5.6155776e-21)
(-0.0055913706 0.0096046239 1.1196036e-20)
(-0.011606866 0.012427633 -1.0607031e-20)
(-0.018250532 0.013597955 4.195815e-21)
(-0.024632532 0.013623722 5.1283933e-21)
(-0.030359158 0.012847712 7.5487454e-22)
(-0.035185488 0.011519576 -2.3750123e-20)
(-0.0389523 0.0098203657 -2.1460206e-21)
(-0.041572076 0.0078790591 2.1261935e-20)
(-0.043006383 0.0057865216 -5.3256999e-21)
(-0.04324709 0.0036059027 -2.3013885e-20)
(-0.042304375 0.0013802058 5.1835877e-21)
(-0.040198915 -0.00086199466 2.3930073e-20)
(-0.036956401 -0.0031019895 1.0955029e-20)
(-0.032603586 -0.0053267834 2.3339506e-20)
(-0.027168861 -0.0075247333 -2.1109117e-20)
(-0.020692512 -0.0096836236 -2.316574e-20)
(-0.013218001 -0.011797731 2.283826e-20)
(-0.004668676 -0.013852796 2.8819971e-20)
(0.0051690699 -0.015673818 1.6961112e-20)
(-0.0023839246 0.0068023317 -4.5497512e-21)
(-0.0067545958 0.014988317 -5.7777759e-21)
(-0.012259705 0.019342062 3.0058131e-22)
(-0.017711401 0.021090453 1.0528583e-21)
(-0.022410387 0.021030565 7.0034794e-21)
(-0.026061021 0.019706191 1.1162699e-20)
(-0.028486491 0.01751427 -3.9112259e-21)
(-0.029576593 0.014742791 -1.9857788e-20)
(-0.029276553 0.011597153 6.8824073e-21)
(-0.027568778 0.0082222327 1.3534255e-20)
(-0.024457717 0.0047187682 6.2212528e-21)
(-0.019960355 0.001155296 1.910218e-20)
(-0.014100107 -0.0024228926 1.8294133e-21)
(-0.0069023489 -0.0059866996 -3.5805782e-20)
(0.001609548 -0.0095163313 1.3679884e-21)
(0.0114123 -0.012994598 -2.3355966e-20)
(0.022459399 -0.016405533 -2.6233271e-20)
(0.034685239 -0.019741908 4.9150933e-20)
(0.048296067 -0.022949337 2.7355596e-20)
(0.06402634 -0.025647632 3.099386e-22)
(-0.0032304397 0.0086625908 -5.5260656e-21)
(-0.0081288036 0.0189461 -9.0575333e-21)
(-0.0127606 0.024338401 4.5235968e-21)
(-0.016378501 0.026384919 4.3331377e-21)
(-0.018546487 0.026102153 2.0917106e-21)
(-0.019106274 0.02419596 7.6689057e-21)
(-0.017977952 0.02118324 9.7438641e-21)
(-0.015122185 0.017439236 -1.4076855e-21)
(-0.010532808 0.013232141 -1.2014232e-20)
(-0.0042247314 0.0087515193 -3.0511537e-20)
(0.003775981 0.004129382 1.0277151e-22)
(0.013437832 -0.00054449151 4.2781589e-20)
(0.024727952 -0.0052112467 -1.9257866e-20)
(0.037613829 -0.0098334627 -1.296875e-20)
(0.05206758 -0.014387017 4.6758968e-22)
(0.068064132 -0.018853274 3.4265694e-20)
(0.085543541 -0.023220112 -1.5967365e-20)
(0.10439802 -0.0274889 -5.6677255e-20)
(0.12496547 -0.031539706 4.8687481e-20)
(0.14871865 -0.034662952 3.5181527e-20)
(-0.0040874735 0.0097750658 -6.7632591e-22)
(-0.0093220721 0.021116781 -1.3028024e-20)
(-0.01260033 0.026919451 -3.5663275e-20)
(-0.013689539 0.028906009 -6.0184367e-21)
(-0.012466337 0.028228242 -3.7363711e-21)
(-0.008939072 0.025705796 6.5771526e-21)
(-0.0031479894 0.021941226 -4.837137e-21)
(0.004856122 0.01737191 -9.146447e-21)
(0.015015049 0.012311078 2.2820892e-20)
(0.027267642 0.0069805283 5.2200682e-21)
(0.041554132 0.0015351565 -2.658632e-20)
(0.057816155 -0.0039194172 1.1541238e-20)
(0.075997222 -0.0093139489 0)
(0.096043 -0.014605637 1.2691107e-20)
(0.1179043 -0.019769215 -1.0202012e-20)
(0.14153617 -0.024789339 -1.5172274e-20)
(0.16684925 -0.02966779 -1.3483215e-21)
(0.19366758 -0.034435908 -2.4692076e-21)
(0.22241137 -0.038907784 4.8516945e-20)
(0.25543534 -0.041901873 -1.1520472e-20)
(-0.0047655856 0.010070873 -7.7972169e-21)
(-0.009871442 0.021314051 2.553206e-20)
(-0.011158132 0.02681983 -1.097016e-20)
(-0.0089385382 0.028345479 -2.8566125e-20)
(-0.0034280153 0.027089262 -2.8593167e-20)
(0.0051793505 0.023932335 -1.5510956e-20)
(0.016705703 0.019524192 -7.0320967e-22)
(0.030993267 0.014335157 5.7322251e-21)
(0.047904202 0.0087028303 2.0315625e-20)
(0.067315559 0.0028671844 7.6439379e-21)
(0.089114754 -0.0030039725 -7.451886e-21)
(0.11319677 -0.0087960742 -2.0076201e-21)
(0.13946006 -0.014434377 -3.9879123e-20)
(0.16780338 -0.01987409 -1.3266028e-20)
(0.19812718 -0.025092 1.9804877e-20)
(0.23033447 -0.030080538 -2.2175198e-20)
(0.2642785 -0.034864983 -9.4352057e-21)
(0.29968537 -0.039535099 3.1768342e-20)
(0.33697262 -0.04387781 5.2938248e-20)
(0.37941149 -0.046132676 3.5568589e-21)
(-0.0050676254 0.0095546977 1.7318165e-20)
(-0.0092760228 0.019528803 1.4936554e-20)
(-0.0077377272 0.02402135 5.3030673e-20)
(-0.001308457 0.02469244 2.4298396e-20)
(0.0094511533 0.02270073 1.8957535e-22)
(0.024150914 0.018936021 -4.0836086e-20)
(0.042462717 0.014054846 -2.5237665e-20)
(0.064108367 0.0085308151 1.0810177e-20)
(0.088850425 0.002703177 1.4911872e-20)
(0.11648137 -0.0031868828 -1.3497744e-20)
(0.14681202 -0.0089710597 -4.5749641e-20)
(0.17966207 -0.01453547 3.0808229e-20)
(0.21485195 -0.019807368 2.0727807e-20)
(0.25219636 -0.024746058 -2.8692066e-20)
(0.29150337 -0.029335981 1.2208503e-20)
(0.33257781 -0.033583371 2.5259262e-20)
(0.37517418 -0.037545618 8.5038854e-21)
(0.41888928 -0.041400268 -1.2499081e-20)
(0.46404062 -0.044987818 -1.4645672e-20)
(0.51471923 -0.04596155 6.7898584e-21)
(-0.0047996181 0.0082926268 1.1479981e-20)
(-0.007023994 0.015911681 -2.4316673e-20)
(-0.0016031545 0.018742181 8.822405e-21)
(0.010088065 0.018232903 3.4830675e-20)
(0.02715012 0.015422952 5.3988242e-20)
(0.04899303 0.011161087 2.0986812e-20)
(0.075127632 0.006072609 -6.1017948e-21)
(0.10513495 0.00060231626 -1.2649674e-20)
(0.13865544 -0.0049329204 -6.4784985e-21)
(0.17536829 -0.010309943 3.5436352e-20)
(0.21497227 -0.015375992 -4.7971383e-21)
(0.25717079 -0.020031496 -1.732499e-20)
(0.30166012 -0.0242179 -2.0349296e-20)
(0.34812061 -0.027909969 -4.931681e-20)
(0.39621486 -0.031110866 2.4147837e-20)
(0.44559537 -0.033851812 -1.470531e-20)
(0.4958726 -0.036234815 2.7270386e-20)
(0.5464968 -0.038557829 2.2056328e-20)
(0.59761655 -0.04083701 -8.8712203e-20)
(0.65392604 -0.040316378 1.0119823e-22)
(-0.0037775719 0.0063977431 2.2608434e-20)
(-0.0026181223 0.01074979 -2.7144351e-20)
(0.0079749917 0.01141855 -4.653373e-20)
(0.026139562 0.0095417996 -2.8198277e-20)
(0.050651288 0.0059673922 -2.1117275e-21)
(0.08071396 0.0014552627 1.3394955e-20)
(0.11566215 -0.0034389586 -2.8571038e-21)
(0.15491448 -0.0083307543 1.8663731e-20)
(0.19795749 -0.012952774 9.0904526e-21)
(0.24431729 -0.017123255 -1.1731102e-20)
(0.29353393 -0.020725954 9.3151754e-21)
(0.34514257 -0.023695066 -2.4719423e-20)
(0.39865989 -0.02600435 8.4889264e-21)
(0.45357514 -0.027660259 1.7420109e-20)
(0.50934884 -0.02869769 -2.7674656e-21)
(0.56542317 -0.029181413 1.7275723e-21)
(0.62120795 -0.029259481 -2.8977929e-22)
(0.67598604 -0.029332825 2.0497857e-20)
(0.72971078 -0.029610953 4.2090807e-21)
(0.78742964 -0.027438175 -1.6085486e-21)
(-0.0018279968 0.0040185434 2.449418e-20)
(0.0044043667 0.0044517649 5.9196853e-20)
(0.021664948 0.0027020536 -5.0854383e-20)
(0.0476375 -0.00049793438 -1.0267725e-20)
(0.080784424 -0.0045645032 2.0842638e-20)
(0.12009723 -0.0088731052 2.2068763e-21)
(0.1647153 -0.012977789 -3.0677926e-20)
(0.21386401 -0.016591003 7.1303833e-21)
(0.26683515 -0.01952834 7.4120344e-21)
(0.32295361 -0.021680879 -2.7123733e-20)
(0.3815492 -0.022999284 1.3611122e-21)
(0.44193876 -0.023480869 -3.8479139e-20)
(0.50341661 -0.023159002 -3.7735251e-20)
(0.56525177 -0.022094529 6.8396764e-20)
(0.62669201 -0.02036814 5.8158269e-21)
(0.68697255 -0.018078836 -1.6038393e-20)
(0.74530418 -0.015383515 2.0220964e-20)
(0.80080216 -0.012583962 -9.6074703e-22)
(0.85294924 -0.0097068567 2.0788623e-20)
(0.9054072 -0.0052132962 -2.1085956e-20)
(-0.017059982 -0.0055795218 6.3351004e-20)
(-0.0075930637 -0.0061840313 1.706411e-20)
(0.0034319446 -0.0066874407 -3.8258968e-20)
(0.015656413 -0.0070153544 1.8535639e-20)
(0.028812326 -0.0072552102 0)
(0.042852447 -0.0074365354 0)
(0.057732015 -0.0075615487 -2.5582941e-20)
(0.073384845 -0.0076380706 -1.8422583e-20)
(0.08975513 -0.0076760012 2.1709931e-20)
(0.1068004 -0.0076826008 2.0700729e-20)
(0.12448493 -0.0076634725 1.1542736e-21)
(0.14277849 -0.0076236522 -1.1789614e-20)
(0.16165708 -0.0075676261 9.9550521e-21)
(0.18110299 -0.0074992753 2.1187078e-20)
(0.20110443 -0.0074219719 -6.5732981e-21)
(0.22165547 -0.0073386519 -1.2009453e-20)
(0.24275591 -0.0072518311 -5.1404928e-21)
(0.26441114 -0.0071635979 -5.1125324e-21)
(0.28663173 -0.0070755934 8.1391847e-22)
(0.30943279 -0.0069889751 1.5861582e-21)
(0.33283299 -0.0069043721 3.629338e-21)
(0.35685313 -0.006821839 8.8040441e-21)
(0.38151425 -0.0067408192 -1.8633099e-22)
(0.4068352 -0.0066601278 -4.8190095e-21)
(0.43282972 -0.0065779658 8.8581054e-23)
(0.45950313 -0.0064919742 -8.3313595e-22)
(0.4868488 -0.0063993349 1.815027e-21)
(0.5148445 -0.0062969191 1.2814556e-21)
(0.5434491 -0.0061814764 -2.3963121e-21)
(0.57259973 -0.0060498515 -3.8803313e-23)
(0.60220985 -0.0058992055 -6.7595804e-22)
(0.63216827 -0.005727212 -4.6350059e-22)
(0.66233925 -0.0055321884 -8.3147781e-22)
(0.69256343 -0.0053131151 4.8651537e-22)
(0.72265903 -0.0050694867 -1.2200451e-22)
(0.75242197 -0.0048009572 -5.6167272e-23)
(0.78162349 -0.0045068133 -9.0836794e-24)
(0.81000362 -0.0041854953 -1.4511177e-22)
(0.83726104 -0.003834624 -2.9693884e-22)
(0.86304419 -0.0034521255 -1.7243608e-22)
(0.88695413 -0.0030387305 -1.612635e-22)
(0.90857354 -0.0026012098 1.7875384e-22)
(0.9275258 -0.0021546203 -1.9999589e-22)
(0.94356523 -0.0017214089 -3.8964593e-22)
(0.95663237 -0.0013267997 8.381714e-24)
(0.96694879 -0.00099136073 1.3322776e-22)
(0.97478227 -0.00072648439 3.4116764e-23)
(0.98096154 -0.00052856011 1.1448627e-23)
(0.9849532 -0.00039692161 -1.2894059e-24)
(0.99006506 -0.00026817554 4.7539424e-23)
(0.01461756 -0.016505049 -1.4021529e-20)
(0.023256454 -0.018329293 -6.8622911e-20)
(0.033951358 -0.019806837 -3.3560339e-20)
(0.045812779 -0.020746012 4.2270564e-20)
(0.058448296 -0.021437781 1.6192806e-20)
(0.071893884 -0.021968639 -2.0428484e-20)
(0.086137335 -0.022336928 5.5443272e-21)
(0.10111449 -0.022563942 2.8405689e-20)
(0.1167763 -0.022679217 -2.3794025e-22)
(0.13308937 -0.022703626 -8.8486259e-21)
(0.15002445 -0.022652946 -1.4288089e-20)
(0.16755586 -0.022541587 -1.0158365e-20)
(0.18566325 -0.022382503 2.0516583e-20)
(0.20433168 -0.02218691 1.1692072e-20)
(0.22355123 -0.021964578 -1.8737272e-20)
(0.24331709 -0.021724054 -7.1649304e-21)
(0.26362953 -0.021472693 3.6364667e-21)
(0.28449385 -0.021216631 9.7791797e-21)
(0.30592008 -0.020960711 8.8698608e-21)
(0.32792242 -0.020708376 -9.7085136e-21)
(0.35051835 -0.02046153 -5.2782656e-21)
(0.37372738 -0.020220389 2.9288878e-21)
(0.39756922 -0.019983374 1.9874741e-21)
(0.42206152 -0.019747049 2.0751437e-21)
(0.44721713 -0.019506159 6.3143353e-22)
(0.47304091 -0.019253784 -8.6122712e-22)
(0.49952633 -0.018981634 -1.4462353e-21)
(0.52665202 -0.01868048 2.5239447e-21)
(0.55437851 -0.018340715 1.9180098e-21)
(0.58264549 -0.017952996 -1.3347246e-21)
(0.61136987 -0.017508896 1.4697312e-21)
(0.64044482 -0.017001493 -3.1590852e-22)
(0.66973975 -0.016425763 -1.1332925e-21)
(0.6991012 -0.015778649 -1.2550793e-21)
(0.72835395 -0.015058633 3.9530433e-22)
(0.75730125 -0.014264692 -1.1081317e-21)
(0.78572258 -0.013394733 9.1621096e-22)
(0.81336735 -0.012444132 -7.9896154e-22)
(0.83994492 -0.01140576 1.2014621e-21)
(0.86511535 -0.010273254 -4.4658609e-23)
(0.88849103 -0.0090484188 4.8694167e-22)
(0.90966374 -0.0077509146 3.4772542e-22)
(0.92826124 -0.0064250835 3.6612585e-22)
(0.94403562 -0.005137459 2.5877483e-22)
(0.95691814 -0.0039631638 2.9671397e-22)
(0.96711544 -0.0029637416 1.3878834e-22)
(0.974878 -0.0021736488 -5.0182722e-24)
(0.98101749 -0.0015825314 -5.013373e-23)
(0.98498911 -0.0011891138 7.5087296e-23)
(0.99008655 -0.00080367781 1.6892409e-22)
(0.076092501 -0.026641433 1.0321492e-20)
(0.083061693 -0.029672814 3.8114631e-21)
(0.092952476 -0.032050045 -1.3917044e-20)
(0.10401482 -0.033500785 -1.6238012e-21)
(0.115554 -0.034584505 1.6792044e-20)
(0.12776652 -0.035441331 -1.649404e-20)
(0.14071308 -0.036045983 -3.3585779e-20)
(0.15432976 -0.036426835 1.6604991e-20)
(0.16857718 -0.036632355 2.0878491e-20)
(0.18343878 -0.036694959 -1.3405169e-20)
(0.19889712 -0.036637974 1.1657252e-21)
(0.21493429 -0.036483296 9.2370765e-21)
(0.23153612 -0.036251031 -1.8232879e-20)
(0.24869232 -0.035958669 5.1977558e-21)
(0.26639602 -0.035621515 9.452172e-21)
(0.28464403 -0.035253073 -1.4036892e-21)
(0.3034371 -0.034865083 -6.602288e-22)
(0.32278 -0.034467428 -9.9854755e-21)
(0.34268138 -0.034068003 6.9839844e-21)
(0.36315339 -0.033672516 1.1992596e-20)
(0.38421103 -0.033284239 -5.5401136e-21)
(0.40587106 -0.03290376 -2.9641912e-21)
(0.42815043 -0.032528774 8.4047181e-22)
(0.4510643 -0.032153971 -2.9941065e-21)
(0.47462358 -0.031771076 1.9181466e-21)
(0.49883202 -0.031369076 1.0395113e-21)
(0.52368308 -0.030934682 4.6382884e-21)
(0.54915674 -0.030453023 -5.2427311e-21)
(0.57521645 -0.029908542 6.1496608e-21)
(0.60180648 -0.029286036 1.3991441e-21)
(0.62885008 -0.028571731 2.7434612e-21)
(0.65624836 -0.027754247 4.2800352e-22)
(0.68388025 -0.026825269 3.1519704e-21)
(0.71160319 -0.025779692 -4.5621707e-21)
(0.73925418 -0.024614978 1.3552022e-21)
(0.76665006 -0.023329481 1.45397e-21)
(0.7935857 -0.021919884 -4.6641502e-22)
(0.81982824 -0.020378704 -7.4535599e-22)
(0.84510732 -0.018694112 -6.7769127e-22)
(0.86910525 -0.016855051 5.7279817e-22)
(0.89145651 -0.014863267 5.4329604e-23)
(0.91177086 -0.012749365 1.5503234e-21)
(0.9296852 -0.010584529 -5.4791382e-22)
(0.94494811 -0.0084770343 -1.4862255e-22)
(0.95747362 -0.0065503497 2.0806584e-22)
(0.96744018 -0.0049065966 -1.9844827e-23)
(0.97506508 -0.0036041652 6.9246533e-23)
(0.98112733 -0.0026273615 1.3337196e-22)
(0.98505993 -0.0019764304 -6.75309e-23)
(0.99012941 -0.0013366041 -8.1877726e-23)
(0.16411923 -0.035343252 1.7936153e-21)
(0.16855495 -0.039529115 -1.2193189e-20)
(0.17696129 -0.042693841 6.8854761e-21)
(0.18666472 -0.04453546 -1.4557833e-20)
(0.19645712 -0.045947279 -2.1712708e-21)
(0.20674044 -0.047113687 1.0496404e-20)
(0.21769913 -0.04796303 -1.1644675e-20)
(0.22926611 -0.048520858 1.1317249e-21)
(0.24140759 -0.048851779 1.4520487e-20)
(0.25412872 -0.048997131 4.319087e-21)
(0.2674276 -0.048984495 -7.0815168e-21)
(0.28129533 -0.048840417 -3.813079e-21)
(0.29572455 -0.048590141 -5.9696867e-21)
(0.31071016 -0.048255961 -8.078582e-21)
(0.32624841 -0.047857558 2.6654322e-21)
(0.34233742 -0.047412516 -4.8184934e-22)
(0.35897773 -0.046936341 2.2471268e-21)
(0.37617264 -0.046442301 -4.1860857e-21)
(0.39392824 -0.045941183 -6.6109745e-21)
(0.41225328 -0.045440988 3.7280757e-21)
(0.43115873 -0.044946564 5.6336384e-21)
(0.45065699 -0.044459231 -3.5036131e-21)
(0.47076066 -0.043976465 2.8373449e-21)
(0.49148089 -0.043491702 -1.2746993e-21)
(0.5128253 -0.04299435 -8.6015045e-21)
(0.53479549 -0.042470059 -5.2248445e-21)
(0.5573843 -0.041901308 -1.0708938e-21)
(0.58057291 -0.04126831 -1.3098271e-22)
(0.60432812 -0.040550209 -4.0470127e-21)
(0.62859986 -0.039726479 -3.4968731e-21)
(0.65331943 -0.038778389 3.2197741e-22)
(0.67839828 -0.037690334 -3.8484608e-21)
(0.70372787 -0.036450795 -7.1010621e-22)
(0.72918007 -0.035052622 -1.7221895e-21)
(0.75460816 -0.033492251 -4.6127274e-22)
(0.77984726 -0.03176752 -2.8454619e-21)
(0.80471302 -0.029874169 -3.8066822e-21)
(0.82899669 -0.027802238 4.4995642e-22)
(0.85245598 -0.025535385 1.5033481e-24)
(0.87480455 -0.023057359 -1.4795249e-21)
(0.89570861 -0.02036816 8.6126813e-22)
(0.91480469 -0.017506345 -9.5586448e-22)
(0.93174461 -0.014566069 -1.7007923e-21)
(0.9462742 -0.011693562 7.7059563e-22)
(0.9582851 -0.009058054 -3.1839614e-23)
(0.96791718 -0.0068014916 2.1103916e-22)
(0.97534137 -0.0050074803 1.122399e-23)
(0.98129033 -0.0036571535 -9.7911075e-23)
(0.98516538 -0.002755678 -5.3253e-23)
(0.99019345 -0.0018652443 1.1347399e-22)
(0.27425017 -0.041816673 -2.2682793e-20)
(0.27523859 -0.047090714 5.0970159e-20)
(0.28126283 -0.050911175 1.1022785e-20)
(0.28888537 -0.053045905 -1.7166e-20)
(0.29621128 -0.054757321 -2.5651268e-21)
(0.30382824 -0.056248653 2.4872828e-21)
(0.31209356 -0.057386335 -2.2519741e-21)
(0.32093979 -0.058183039 -5.2069625e-21)
(0.33032668 -0.058711872 -4.5019101e-21)
(0.34027931 -0.059019514 -1.3791335e-20)
(0.35081285 -0.059135333 2.1164915e-20)
(0.36192654 -0.059087657 8.0716341e-21)
(0.37361812 -0.058904449 -1.9425855e-20)
(0.38588624 -0.058611188 1.0881692e-20)
(0.39872907 -0.058230802 8.6008275e-21)
(0.41214471 -0.057784099 3.1093283e-22)
(0.4261321 -0.057289782 -2.796445e-21)
(0.44069162 -0.056764195 -6.1624945e-21)
(0.45582531 -0.056220947 -2.4956444e-21)
(0.47153694 -0.055670479 -2.3114734e-21)
(0.48783184 -0.055119559 -5.5442252e-21)
(0.50471638 -0.054570767 0)
(0.52219714 -0.054022048 -2.7204245e-21)
(0.54027962 -0.053466417 6.2518868e-21)
(0.55896662 -0.0528919 1.0253272e-20)
(0.5782562 -0.052281808 -1.324406e-21)
(0.59813942 -0.051615394 -7.6157948e-21)
(0.61859786 -0.050868918 8.7316127e-21)
(0.6396012 -0.050017092 -1.3000068e-21)
(0.66110505 -0.049034785 9.4661016e-21)
(0.68304919 -0.047898842 -7.5896899e-22)
(0.70535638 -0.046589769 4.1277258e-21)
(0.72793195 -0.045092999 -2.6587185e-21)
(0.75066405 -0.043399358 1.8988767e-21)
(0.77342444 -0.041504276 -1.9844341e-21)
(0.79606911 -0.039405237 1.1909466e-21)
(0.81843768 -0.03709745 1.6688228e-21)
(0.84034952 -0.034569084 1.3527047e-21)
(0.86159566 -0.03179972 -2.9028793e-21)
(0.88192786 -0.028767517 1.8781703e-21)
(0.90105215 -0.025468835 -7.165592e-22)
(0.91864007 -0.021946494 -2.9844049e-21)
(0.9343651 -0.018312649 3.0484097e-21)
(0.9479735 -0.014746442 1.3198088e-22)
(0.95933285 -0.011459253 -1.8712386e-22)
(0.96853794 -0.0086315935 2.2542826e-23)
(0.97570367 -0.0063737216 -1.8470477e-22)
(0.98150532 -0.0046662499 -2.4151593e-22)
(0.985305 -0.0035237455 -9.3346087e-24)
(0.9902783 -0.0023878989 -3.3540235e-23)
(0.40100463 -0.045023806 -1.9054586e-20)
(0.3976281 -0.051384808 1.355756e-20)
(0.40022684 -0.055772905 3.7022605e-21)
(0.40491108 -0.058195828 -8.2935718e-21)
(0.40903692 -0.060263222 1.3142682e-20)
(0.41327598 -0.06215321 8.555465e-21)
(0.41818096 -0.063675449 -1.3551698e-20)
(0.42370336 -0.064828003 -6.7330801e-21)
(0.42978138 -0.065679307 1.4176062e-20)
(0.43644726 -0.066274491 -1.8181274e-20)
(0.4437303 -0.066643285 -1.5901182e-20)
(0.45163597 -0.066814245 1.7426941e-20)
(0.46016347 -0.066815991 7.9120385e-21)
(0.46931191 -0.066675747 -6.7793328e-21)
(0.47907886 -0.066418887 -9.5628119e-22)
(0.48946032 -0.066068942 -3.5626532e-21)
(0.50045178 -0.065647517 4.9552684e-21)
(0.51204898 -0.065173953 4.502996e-21)
(0.52424835 -0.064664824 -3.6570925e-21)
(0.5370472 -0.06413334 3.9683751e-21)
(0.55044372 -0.063588703 4.4260299e-21)
(0.56443683 -0.063035442 -5.1357635e-21)
(0.57902556 -0.062472831 5.1125761e-22)
(0.59420827 -0.061894455 -4.4685894e-21)
(0.60998141 -0.061288068 1.6360718e-20)
(0.62633803 -0.060635813 1.2405757e-20)
(0.64326598 -0.059914902 2.9266935e-21)
(0.6607459 -0.059098785 -3.5858471e-21)
(0.67874927 -0.058158771 1.1099555e-20)
(0.69723641 -0.057065996 2.0601389e-20)
(0.71615492 -0.055793546 5.1722417e-21)
(0.73543846 -0.054318477 1.0025309e-20)
(0.75500615 -0.052623395 5.2365893e-21)
(0.77476257 -0.050697177 2.536083e-21)
(0.79459835 -0.048534288 -2.6669568e-22)
(0.81439096 -0.046132061 8.8181219e-21)
(0.83400483 -0.043485703 1.8436503e-21)
(0.85328893 -0.040582342 6.7900033e-22)
(0.87207002 -0.037398249 6.7525655e-23)
(0.89014199 -0.033905937 3.4748323e-21)
(0.90725642 -0.030096362 -3.9797634e-23)
(0.92312707 -0.026012684 1.5752504e-21)
(0.93745624 -0.021779398 4.9351841e-23)
(0.94999609 -0.017602538 -1.0713317e-21)
(0.96059202 -0.013731059 -2.8725718e-22)
(0.96929145 -0.010382101 -5.1739516e-22)
(0.97614771 -0.007693886 1.8303377e-22)
(0.98177073 -0.0056492984 -9.0779214e-23)
(0.98547813 -0.004277626 -6.2317959e-24)
(0.99038345 -0.00290288 2.052786e-22)
(0.53779655 -0.043909178 3.5235949e-21)
(0.52933586 -0.051380811 -1.9844542e-20)
(0.52748089 -0.056314125 -2.5692517e-21)
(0.52835324 -0.059187666 5.8433656e-21)
(0.52866503 -0.061814651 3.5826446e-21)
(0.52897604 -0.064272563 4.9963357e-22)
(0.52999546 -0.066343956 7.4550888e-21)
(0.53173751 -0.068029325 8.6137492e-21)
(0.53411811 -0.069382692 1.075875e-20)
(0.53715367 -0.070438445 -1.2827182e-20)
(0.54087672 -0.071224659 -2.5221962e-20)
(0.5452959 -0.071770055 -5.2094812e-21)
(0.55040841 -0.072103317 1.9071481e-20)
(0.55620969 -0.072252798 1.5426375e-20)
(0.56269358 -0.072246121 -6.3218516e-21)
(0.56985179 -0.072109644 4.4798695e-22)
(0.5776746 -0.071868082 -5.6734658e-21)
(0.58615168 -0.071544083 5.1339844e-21)
(0.59527266 -0.071157606 -3.6454483e-22)
(0.60502735 -0.070725176 -2.7152334e-21)
(0.61540592 -0.070259099 1.2759346e-20)
(0.62639883 -0.069766664 -1.2155389e-21)
(0.63799665 -0.069249412 1.4184063e-21)
(0.6501895 -0.068702575 1.0467418e-23)
(0.66296635 -0.068114808 -7.6503492e-21)
(0.67631394 -0.067468334 7.7899457e-21)
(0.69021554 -0.066739594 2.7483417e-21)
(0.70464945 -0.065900458 -6.5787297e-21)
(0.7195874 -0.064919965 -7.0134766e-21)