/*--------------------------------*- C++ -*----------------------------------*\
  =========                 |
  \\      /  F ield         | OpenFOAM: The Open Source CFD Toolbox
   \\    /   O peration     | Website:  https://openfoam.org
    \\  /    A nd           | Version:  6
     \\/     M anipulation  |
\*---------------------------------------------------------------------------*/
FoamFile
{
    version     2.0;
    format      ascii;
    class       surfaceScalarField;
    location    "196";
    object      phi;
}
// * * * * * * * * * * * * * * * * * * * * * * * * * * * * * * * * * * * * * //

dimensions      [0 3 -1 0 0 0 0];

internalField   nonuniform List<scalar> 
18180
(
0.00031872918
-0.00016315999
-0.00015556919
0.0013092107
-0.0013669157
0.00037643418
0.0030328868
-0.0033336195
0.0016099433
0.0055497721
-0.0059759585
0.0034590732
0.0089181946
-0.0092390788
0.0058706562
0.013192809
-0.013079528
0.0088049142
0.018421936
-0.01745984
0.012230712
0.024644597
-0.022345798
0.016123137
0.031887361
-0.027703314
0.020460551
0.040161269
-0.033495805
0.025221897
0.049459153
-0.039682437
0.030384553
0.059753704
-0.046217207
0.035922656
0.070996712
-0.053048847
0.041805839
0.083119914
-0.060121582
0.047998379
0.096038086
-0.067376835
0.054458663
0.10965487
-0.074755995
0.06113921
0.1238708
-0.082204087
0.067988155
0.13859853
-0.08967407
0.074946343
0.15383663
-0.097148816
0.081910719
-0.10462595
0.088678873
0.16978371
0.00039749697
-0.00056065696
0.0016095943
-0.002579013
0.0036893171
-0.0054133423
0.0066874418
-0.0089740832
0.010650649
-0.013202286
0.015617865
-0.018046744
0.021616253
-0.023458227
0.028657249
-0.029386795
0.036732935
-0.035779
0.045813132
-0.042576003
0.055843674
-0.049712979
0.066746188
-0.057119721
0.078419643
-0.064722302
0.090743758
-0.072445696
0.10358404
-0.080217119
0.11679789
-0.087969841
0.13024076
-0.095646956
0.14377296
-0.10320627
0.15725856
-0.11063441
-0.11786188
0.17049449
0.00048062331
-0.0010412803
0.0019186978
-0.0040170875
0.0043524777
-0.0078471222
0.0078165614
-0.012438167
0.012337661
-0.017723386
0.017929202
-0.023638285
0.024586243
-0.030115267
0.032281202
-0.037081754
0.04096083
-0.044458628
0.050544909
-0.052160082
0.060927054
-0.060095124
0.07197779
-0.068170457
0.083549781
-0.076294293
0.095484794
-0.084380709
0.10762167
-0.092353996
0.11980424
-0.10015241
0.13188799
-0.1077307
0.14374347
-0.11506175
0.15524869
-0.12213964
-0.12891428
0.16630109
0.00056616956
-0.0016074498
0.0022279419
-0.0056788598
0.0050006101
-0.01061979
0.0088940086
-0.016331565
0.013905254
-0.022734632
0.020011877
-0.029744908
0.027166482
-0.037269872
0.035293409
-0.045208681
0.044287848
-0.053453067
0.054017767
-0.06189
0.064328709
-0.070406066
0.075051119
-0.078892867
0.086009513
-0.087252687
0.097032487
-0.095403683
0.10796245
-0.10328396
0.11866395
-0.11085391
0.12902964
-0.1180964
0.13898297
-0.12501507
0.14847491
-0.13163159
-0.13794519
0.15750582
0.00065088612
-0.002258336
0.0025243412
-0.0075523149
0.0056036334
-0.013699083
0.0098644631
-0.020592395
0.015264609
-0.028134778
0.021736406
-0.036216706
0.029182477
-0.044715942
0.037474888
-0.053501093
0.046457996
-0.062436174
0.05595483
-0.071386835
0.065776424
-0.08022766
0.075733005
-0.088849448
0.085645711
-0.097165392
0.095357389
-0.10511536
0.10474121
-0.11266778
0.11370619
-0.11981889
0.12219936
-0.12658957
0.13020456
-0.13302027
0.137738
-0.13916502
-0.14506756
0.14486038
0.0007306357
-0.0029889717
0.0027920858
-0.0096137649
0.0061265733
-0.01703357
0.01066671
-0.025132532
0.016322648
-0.033790715
0.02297524
-0.042869298
0.030474425
-0.052215127
0.038642393
-0.061669061
0.047281182
-0.071074963
0.056183727
-0.08028938
0.06514688
-0.089190813
0.073984593
-0.097687161
0.082539478
-0.10572028
0.090691296
-0.11326718
0.098361451
-0.12033793
0.1055133
-0.12697074
0.11214879
-0.13322507
0.1183024
-0.13917389
0.12403363
-0.14489625
-0.15046329
0.12942935
0.00080073107
-0.0037897027
0.0030139156
-0.011826949
0.0065328934
-0.020552548
0.01124005
-0.029839689
0.016992695
-0.039543359
0.023618542
-0.049495145
0.030918211
-0.059514797
0.038673314
-0.069424164
0.046658768
-0.079060418
0.054657393
-0.088288004
0.062474455
-0.097007874
0.069949952
-0.10516266
0.076966961
-0.11273729
0.0834551
-0.11975532
0.089389111
-0.12627195
0.094783317
-0.13236495
0.099683309
-0.13812506
0.1041565
-0.14364708
0.10828311
-0.14902286
-0.15433356
0.11215338
0.00085605859
-0.0046457613
0.0031720602
-0.014142951
0.0067872249
-0.024167713
0.011529801
-0.034582265
0.017203432
-0.04521699
0.023586546
-0.055878259
0.030439872
-0.066368123
0.037519325
-0.076503617
0.044591796
-0.086132889
0.051451002
-0.09514721
0.057930631
-0.1034875
0.063912776
-0.1111448
0.069330645
-0.11815516
0.074165695
-0.12459037
0.078440258
-0.13054651
0.08220734
-0.13613203
0.085539506
-0.14145722
0.088518566
-0.14662614
0.091227364
-0.15173165
-0.15685204
0.093745849
0.00089026224
-0.0055360236
0.0032482828
-0.016500972
0.0068576213
-0.027777051
0.011492463
-0.039217106
0.016906808
-0.050631335
0.022838893
-0.061810345
0.029023668
-0.072552898
0.035209249
-0.082689198
0.041173927
-0.092097567
0.046740396
-0.10071368
0.051784656
-0.10853176
0.056238409
-0.11559856
0.060085141
-0.12200189
0.06335125
-0.12785648
0.066094218
-0.13328948
0.06839006
-0.13842787
0.070321928
-0.14338909
0.071971241
-0.14827545
0.073411931
-0.15317234
-0.1581477
0.074707584
0.00089981813
-0.0064358417
0.0032333801
-0.018834534
0.0067291633
-0.031272834
0.011111175
-0.043599118
0.016092484
-0.055612644
0.021384621
-0.067102482
0.026713883
-0.07788216
0.031839115
-0.08781443
0.036567086
-0.096825538
0.040762272
-0.10490887
0.044349475
-0.11211897
0.047309351
-0.11855843
0.049668408
-0.12436094
0.051485817
-0.12967389
0.052839528
-0.13464319
0.053813823
-0.13940216
0.054489714
-0.14406498
0.054938823
-0.14872456
0.05522055
-0.15345407
0.055380985
-0.15830813
-0.00020237822
0.00020237822
-4.8061708e-13
-0.0006777463
0.00047536808
-1.4725655e-12
-0.0013424254
0.00066467913
-2.0619212e-12
-0.0021322936
0.00078986816
-2.3073774e-12
-0.0029957723
0.00086347872
-2.355215e-12
-0.0038907393
0.00089496698
-2.1950497e-12
-0.0047822946
0.00089155528
-1.9256968e-12
-0.0056408915
0.00085859697
-1.4879163e-12
-0.0064408664
0.00079997486
-9.8439283e-13
-0.0071592872
0.00071842083
-3.1505435e-13
-0.0077750356
0.00061574838
4.1896822e-13
-0.0082680713
0.00049303572
1.3160164e-12
-0.0086188527
0.00035078142
2.2595653e-12
-0.0088079034
0.00018905068
3.4066569e-12
-0.0088155569
7.6534563e-06
4.7529802e-12
-0.0086219805
-0.00019357643
6.2855419e-12
-0.0082074391
-0.00041454143
7.6723083e-12
-0.0075518898
-0.00065554926
8.9807491e-12
-0.0066345765
-0.00091731334
1.0293784e-11
-0.0011862301
-0.0054483464
1.2254909e-11
-0.00018797444
0.00039035266
-0.00062500694
0.00091240058
-0.0012287531
0.0012684253
-0.0019351943
0.0014963094
-0.002692139
0.0016204234
-0.0034562838
0.0016591118
-0.0041910669
0.0016263384
-0.0048648586
0.0015323887
-0.0054495239
0.0013846401
-0.0059192868
0.0011881838
-0.0062498157
0.00094627723
-0.0064174807
0.00066070079
-0.0063987497
0.00033205035
-0.0061697083
-3.9990636e-05
-0.0057057359
-0.00045631899
-0.0049814244
-0.00091788796
-0.0039707946
-0.0014251711
-0.0026472173
-0.0019791266
-0.00098326247
-0.0025812681
-0.0032017799
0.0010322873
-0.00015892783
0.00054928049
-0.00051889139
0.0012723641
-0.0010007699
0.0017503038
-0.0015412593
0.0020367987
-0.0020873498
0.0021665139
-0.0025937351
0.0021654972
-0.0030208683
0.0020534715
-0.0033332938
0.0018448142
-0.0034983025
0.0015496488
-0.0034848554
0.0011747367
-0.0032626997
0.00072412154
-0.0028016491
0.00019965019
-0.00207095
-0.00039864873
-0.0010387677
-0.0010721729
0.00032824305
-0.0018233298
0.0020652146
-0.0026548595
0.0042090259
-0.0035689825
0.0067979968
-0.0045680975
0.0098718186
-0.0056550899
-0.006779733
0.013449772
-0.00011756694
0.00066684743
-0.00036699849
0.0015217957
-0.00067351357
0.0020568189
-0.00097482555
0.0023381107
-0.0012168539
0.0024085423
-0.0013515942
0.0023002374
-0.0013354601
0.0020373374
-0.0011278292
0.0016371833
-0.00068984629
0.0011116659
1.6528731e-05
0.00046836165
0.0010293051
-0.00028865484
0.0023871081
-0.0011581528
0.0041297241
-0.0021412648
0.0062985825
-0.0032410313
0.0089372613
-0.0044620086
0.012092044
-0.0058096424
0.015812295
-0.0072892334
0.020150157
-0.0089059597
0.025160341
-0.010665274
-0.012492609
0.030873217
-6.6907631e-05
0.00073375506
-0.0001791665
0.0016340546
-0.00026653383
0.0021441862
-0.00026769155
0.0023392684
-0.00012719446
0.0022680452
0.0002061665
0.0019668764
0.00078069285
0.0014628111
0.001642948
0.00077492817
0.0028387269
-8.4112991e-05
0.0044138419
-0.0011067534
0.0064146864
-0.0022894993
0.0088886509
-0.0036321174
0.011884449
-0.0051370629
0.015452447
-0.0068090288
0.019645036
-0.0086545981
0.024517257
-0.010681863
0.030127671
-0.012899648
0.036538879
-0.015317167
0.043818276
-0.017944671
-0.020682525
0.052008192
-9.9846304e-06
0.00074373969
3.4534947e-05
0.001589535
0.00019989008
0.0019788311
0.00054676553
0.001992393
0.0011322467
0.001682564
0.0020109804
0.0010881428
0.0032361388
0.00023765269
0.0048603023
-0.00084923541
0.0069361177
-0.0021599283
0.0095166716
-0.0036873073
0.0126557
-0.0054285274
0.016407691
-0.0073841083
0.020827813
-0.0095571857
0.025971755
-0.011952971
0.031895625
-0.014578467
0.03865625
-0.017442488
0.046312363
-0.020555761
0.054926662
-0.023931467
0.064569645
-0.027587654
-0.031405576
0.075292696
5.0751284e-05
0.0006929884
0.00026565765
0.0013746286
0.00070825409
0.0015362346
0.0014390298
0.0012616173
0.0025168193
0.00060477445
0.0039995648
-0.00039460272
0.0059449121
-0.0017076945
0.0084105996
-0.003314923
0.011454589
-0.0052039179
0.015135035
-0.0073677526
0.019510013
-0.0098035061
0.024637
-0.012511095
0.030572129
-0.015492315
0.037369299
-0.018750141
0.045079238
-0.022288407
0.053748959
-0.026112208
0.06342257
-0.030229372
0.074144671
-0.034653569
0.085969297
-0.03941228
-0.044388481
0.098952202
0.00011379626
0.00057919214
0.00050850323
0.00097992165
0.0012459819
0.00079875597
0.0023867767
0.00012082247
0.0039912394
-0.00099968821
0.0061198737
-0.002523237
0.0088333164
-0.0044211373
0.012192161
-0.0066737672
0.016256551
-0.009268308
0.021085437
-0.012196638
0.026735536
-0.015453606
0.033260009
-0.019035567
0.040706867
-0.022939173
0.049117171
-0.027160445
0.05852313
-0.031694365
0.068946478
-0.036535556
0.080398294
-0.041681188
0.092882117
-0.047137392
0.10640545
-0.052935613
-0.058995645
0.12101262
0.00017849576
0.00040069638
0.00076002966
0.00039838775
0.0018053384
-0.00024655272
0.0033747126
-0.0014485518
0.0055289937
-0.0031539693
0.0083293167
-0.00532356
0.011836486
-0.0079283067
0.016110053
-0.010947334
0.021207036
-0.01436529
0.027180295
-0.018169897
0.034076607
-0.022349918
0.041934465
-0.026893425
0.050781645
-0.031786354
0.060632575
-0.037011375
0.071485478
-0.042547268
0.083319366
-0.048369444
0.096091834
-0.054453656
0.1097404
-0.060785954
0.12419597
-0.067391186
-0.074274593
0.13947492
0.00024512719
0.0010199491
0.0023833397
0.0043938611
0.0071105481
0.010591902
0.014894307
0.02007011
0.026165371
0.03321737
0.041252006
0.050281236
0.060300722
0.071287726
0.083199121
0.095968887
0.10950339
0.12366377
0.13818331
0.15258759
-0.0035077216
-0.0019406248
1.943449e-11
-0.0012859374
-0.0022217843
2.1017746e-11
0.001194671
-0.0024806085
2.1058148e-11
0.0038772045
-0.0026825335
2.4428434e-11
0.0067348593
-0.0028576549
3.2453262e-11
0.0097503296
-0.0030154703
4.1054162e-11
0.012904681
-0.0031543511
4.8673409e-11
0.01617989
-0.0032752092
5.2608466e-11
0.019560256
-0.0033803659
5.3826054e-11
0.023031559
-0.0034713037
5.339023e-11
0.026580514
-0.003548955
5.1995923e-11
0.030194696
-0.0036141815
4.8610784e-11
0.03386246
-0.0036677648
4.3040045e-11
0.037572812
-0.0037103517
3.4932956e-11
0.041315299
-0.0037424871
2.4133713e-11
0.04507995
-0.0037646505
1.0698089e-11
0.048857223
-0.0037772732
-5.462568e-12
0.052637975
-0.0037807518
-2.4102484e-11
0.056413437
-0.0037754627
-4.4680346e-11
0.060175211
-0.0037617739
-6.6327798e-11
0.063915265
-0.0037400532
-8.8013837e-11
0.06762594
-0.0037106748
-1.0842516e-10
0.071299963
-0.0036740231
-1.2621648e-10
0.074930458
-0.0036304951
-1.3983828e-10
0.078510958
-0.0035805002
-1.4793181e-10
0.082035418
-0.0035244593
-1.4917675e-10
0.085498221
-0.0034628025
-1.4276665e-10
0.088894187
-0.0033959662
-1.2819589e-10
0.092218576
-0.0033243895
-1.0578107e-10
0.095467087
-0.0032485105
-7.6298186e-11
0.09863585
-0.0031687634
-4.1530928e-11
0.10172142
-0.0030855742
-3.6284295e-12
0.10472078
-0.0029993587
3.4288255e-11
0.1076313
-0.0029105202
6.9254277e-11
0.11045075
-0.0028194481
9.7620808e-11
0.11317727
-0.0027265178
1.1690402e-10
0.11580936
-0.002632092
1.2430813e-10
0.11834588
-0.0025365227
1.194513e-10
0.12078604
-0.0024401589
1.0179062e-10
0.12312939
-0.0023433469
7.4099283e-11
0.12537586
-0.0022464726
3.824612e-11
0.12752575
-0.0021498872
-1.1335031e-12
0.12958003
-0.0020542802
-4.0069465e-11
0.13153967
-0.0019596403
-7.2747889e-11
0.13340876
-0.0018690879
-9.4532612e-11
0.1351858
-0.0017770447
-1.0177031e-10
0.13689525
-0.0017094485
-9.1878124e-11
0.13849296
-0.0015977087
-6.5072384e-11
0.14017974
-0.0016867804
-1.9961018e-11
-0.00133098
4.6073905e-11
0.0028528991
-0.0037612366
0.0049500416
-0.0043189268
0.0072928962
-0.004823463
0.0098190207
-0.005208658
0.012507354
-0.0055459882
0.015345571
-0.005853687
0.01831693
-0.0061257101
0.021405024
-0.0063633041
0.024595836
-0.0065711776
0.027876602
-0.0067520697
0.03123519
-0.0069075434
0.03466012
-0.007039111
0.038140534
-0.0071481785
0.041666085
-0.0072359032
0.045226857
-0.0073032585
0.048813314
-0.0073511083
0.05241628
-0.0073802383
0.056026907
-0.0073913792
0.059636677
-0.0073852327
0.063237396
-0.007362493
0.066821204
-0.0073238615
0.070380588
-0.007270058
0.073908392
-0.0072018275
0.07739784
-0.0071199428
0.080842544
-0.007025205
0.084236524
-0.0069184393
0.087574213
-0.0068004914
0.090850468
-0.0066722206
0.094060571
-0.0065344929
0.097200234
-0.0063881733
0.10026559
-0.0062341191
0.10325319
-0.0060731732
0.10615999
-0.005906158
0.10898334
-0.0057338724
0.11172098
-0.0055570877
0.11437101
-0.0053765489
0.11693189
-0.005192976
0.11940244
-0.0050070687
0.1217818
-0.0048195215
0.12406948
-0.0046310237
0.12626535
-0.0044423462
0.12836966
-0.0042541893
0.13038331
-0.0040679298
0.13230721
-0.003883549
0.13414538
-0.0037072553
0.13589633
-0.0035279912
0.13758404
-0.0033971555
0.1391654
-0.0031790753
0.14083603
-0.0033574135
-0.0026595057
0.015021104
-0.0053325692
0.0168522
-0.0061500225
0.018905732
-0.0068769949
0.021111772
-0.0074146981
0.023458686
-0.007892902
0.025942821
-0.0083378217
0.028551558
-0.0087344474
0.031271418
-0.0090831638
0.034091299
-0.0093910591
0.037000973
-0.0096617431
0.039990317
-0.0098968879
0.043049472
-0.010098266
0.046168913
-0.010267619
0.049339385
-0.010406375
0.052551857
-0.010515731
0.055797519
-0.01059677
0.059067781
-0.0106505
0.062354279
-0.010677878
0.065648892
-0.010679846
0.068943754
-0.010657355
0.072231277
-0.010611385
0.075504175
-0.010542955
0.07875548
-0.010453133
0.081978573
-0.010343035
0.085167194
-0.010213826
0.088315466
-0.010066711
0.091417903
-0.0099029285
0.094469423
-0.0097237409
0.097465352
-0.0095304215
0.10040142
-0.009324246
0.10327378
-0.0091064779
0.10607897
-0.0088783622
0.10881393
-0.0086411149
0.11147597
-0.0083959174
0.1140628
-0.0081439129
0.11657246
-0.0078862057
0.11900335
-0.0076238651
0.12135421
-0.0073579318
0.12362413
-0.0070894407
0.12581252
-0.0068194207
0.1279192
-0.0065490241
0.12994431
-0.0062793003
0.13188869
-0.0060123066
0.13375317
-0.0057480325
0.13554161
-0.0054956914
0.13725261
-0.0052389923
0.13890919
-0.0050537365
0.14047058
-0.0047404673
0.14212178
-0.0050086073
-0.0039962688
0.032056504
-0.0065158559
0.033471696
-0.0075652147
0.035077194
-0.0084824933
0.036800022
-0.0091375261
0.038640865
-0.0097337453
0.040606021
-0.010302977
0.042688317
-0.010816744
0.044878232
-0.011273078
0.047168187
-0.011681015
0.049550956
-0.012044512
0.05201883
-0.012364762
0.054563854
-0.01264329
0.057178016
-0.012881782
0.059853275
-0.013081633
0.062581566
-0.013244023
0.065354847
-0.013370051
0.068165136
-0.013460788
0.071004555
-0.013517297
0.073865372
-0.013540663
0.076740035
-0.013532018
0.07962121
-0.01349256
0.082501819
-0.013423564
0.085375065
-0.01332638
0.088234468
-0.013202438
0.091073881
-0.01305324
0.093887518
-0.012880348
0.096669964
-0.012685375
0.099416189
-0.012469966
0.10212155
-0.012235787
0.10478182
-0.011984507
0.10739312
-0.011717782
0.109952
-0.011437245
0.11245538
-0.011144493
0.11490054
-0.010841078
0.11728513
-0.010528505
0.11960716
-0.010208229
0.12186495
-0.0098816614
0.1240572
-0.0095501775
0.12618291
-0.0092151474
0.12824142
-0.0088779375
0.13023248
-0.008540079
0.13215615
-0.0082029712
0.13401318
-0.0078693436
0.13580437
-0.0075392182
0.13753337
-0.0072246902
0.13919898
-0.0069046019
0.14082284
-0.0066775945
0.14236765
-0.0062852797
0.14400313
-0.0066440917
-0.0053571631
0.05264848
-0.0071561433
0.05348906
-0.0084057947
0.054483167
-0.0094766006
0.055565114
-0.010219473
0.056749717
-0.010918349
0.05805127
-0.011604531
0.059468285
-0.012233758
0.060995892
-0.012800685
0.062629881
-0.013315004
0.064365656
-0.013780286
0.066197694
-0.0141968
0.068119726
-0.014565322
0.070124988
-0.014887044
0.072206378
-0.015163023
0.074356549
-0.015394193
0.076567987
-0.015581489
0.0788331
-0.015725902
0.081144295
-0.015828492
0.083494043
-0.01589041
0.08587494
-0.015912915
0.08827976
-0.015897381
0.090701501
-0.015845305
0.093133425
-0.015758303
0.095569087
-0.015638101
0.098002375
-0.015486528
0.10042752
-0.015305493
0.10283912
-0.015096977
0.10523216
-0.014863001
0.10760199
-0.014605619
0.10994437
-0.014326886
0.11225543
-0.014028845
0.1145317
-0.013713512
0.11677007
-0.013382861
0.1189678
-0.013038809
0.12112251
-0.012683218
0.12323217
-0.012317891
0.12529509
-0.011944577
0.1273099
-0.011564985
0.12927557
-0.01118082
0.13119142
-0.010793786
0.13305713
-0.010405793
0.13487276
-0.010018595
0.136639
-0.0096355843
0.13835663
-0.0092568473
0.14002914
-0.008897206
0.14165564
-0.0085310998
0.14325608
-0.0082780363
0.1447976
-0.0078267987
0.14643101
-0.0082774973
-0.0067654276
0.075221673
-0.0070851199
0.075326625
-0.0085107466
0.075550983
-0.0097009587
0.075851263
-0.010519753
0.0762555
-0.011322586
0.076780547
-0.012129577
0.077429439
-0.01288265
0.078202106
-0.013573352
0.079096856
-0.014209755
0.080110542
-0.014793972
0.081238919
-0.015325177
0.082476691
-0.015803095
0.083817675
-0.016228027
0.08525509
-0.016600438
0.086781759
-0.016920862
0.088390231
-0.017189961
0.090072886
-0.017408557
0.091822046
-0.017577651
0.093630067
-0.017698431
0.095489411
-0.017772259
0.097392712
-0.017800682
0.099332827
-0.017785421
0.10130289
-0.017728364
0.10329633
-0.017631545
0.10530694
-0.017497132
0.10732884
-0.017327398
0.10935656
-0.0171247
0.11138502
-0.016891453
0.11340951
-0.016630108
0.11542574
-0.016343118
0.11742982
-0.016032924
0.11941824
-0.015701935
0.12138788
-0.015352504
0.123336
-0.014986926
0.12526021
-0.014607424
0.12715847
-0.014216154
0.1290291
-0.013815209
0.13087075
-0.013406638
0.13268242
-0.012992486
0.13446343
-0.012574801
0.13621352
-0.012155877
0.13793275
-0.011737831
0.13962188
-0.011324709
0.14128173
-0.010916704
0.14291571
-0.010531184
0.14452333
-0.010138717
0.1461227
-0.0098774069
0.14768611
-0.0093902122
0.14934302
-0.0099344073
-0.0082531754
0.098025201
-0.0061581189
0.09725792
-0.0077434662
0.096581622
-0.0090246602
0.095997177
-0.0099353079
0.095540714
-0.010866123
0.095223465
-0.011812328
0.095050796
-0.012709982
0.095026712
-0.013549268
0.095150745
-0.014333787
0.095419629
-0.015062856
0.095829004
-0.015734552
0.09637346
-0.016347551
0.097046513
-0.01690108
0.097840929
-0.017394854
0.098749026
-0.017828959
0.09976283
-0.018203765
0.10087421
-0.018519933
0.10207497
-0.018778417
0.103357
-0.018980456
0.10471229
-0.019127554
0.10613307
-0.019221463
0.10761182
-0.019264168
0.10914132
-0.019257867
0.11071472
-0.019204944
0.11232553
-0.019107944
0.11396768
-0.018969542
0.11563549
-0.018792511
0.11732373
-0.018579692
0.11902759
-0.018333966
0.12074269
-0.018058215
0.12246507
-0.017755309
0.1241912
-0.017428067
0.12591795
-0.017079254
0.12764258
-0.016711558
0.12936275
-0.016327585
0.13107645
-0.015929862
0.13278209
-0.015520842
0.13447838
-0.015102929
0.13616441
-0.014678523
0.13783964
-0.014250028
0.1395039
-0.013820137
0.14115741
-0.013391341
0.14280104
-0.01296834
0.14443581
-0.012551469
0.14606509
-0.012160469
0.14768896
-0.01176258
0.14932362
-0.011512071
0.15094701
-0.011013597
0.15266601
-0.011653411
-0.0098621662
0.11918897
-0.0043344719
0.11749636
-0.0060508587
0.11585684
-0.0073851382
0.11435431
-0.0084327749
0.113025
-0.0095368168
0.11186643
-0.01065376
0.11088407
-0.011727618
0.11008419
-0.012749389
0.1094662
-0.013715803
0.10902552
-0.014622173
0.10875633
-0.01546536
0.10865196
-0.016243186
0.10870483
-0.016953948
0.10890662
-0.017596644
0.10924861
-0.018170945
0.10972185
-0.018677008
0.11031732
-0.019115403
0.11102601
-0.019487108
0.11183904
-0.019793485
0.11274773
-0.02003624
0.11374366
-0.020217399
0.11481877
-0.020339274
0.11596534
-0.020404436
0.11717607
-0.020415679
0.11844411
-0.020375984
0.11976306
-0.020288485
0.12112697
-0.020156426
0.12253041
-0.019983129
0.12396839
-0.019771949
0.12543643
-0.019526251
0.12693049
-0.019249368
0.128447
-0.018944582
0.12998285
-0.018615101
0.13153533
-0.018264043
0.13310218
-0.01789443
0.1346815
-0.017509188
0.13627182
-0.017111161
0.13787202
-0.016703132
0.13948138
-0.016287879
0.14109954
-0.015868186
0.14272656
-0.015447163
0.14436292
-0.015027696
0.14600972
-0.01461514
0.14766827
-0.014210018
0.14934206
-0.013834259
0.15103182
-0.013452339
0.15275192
-0.013232179
0.15448618
-0.012747855
0.1563188
-0.013486033
-0.011643748
0.13689595
-0.0017555003
0.13437798
-0.0035328962
0.13181941
-0.0048265678
0.12946234
-0.006075707
0.12733399
-0.0074084586
0.12541571
-0.0087354852
0.12371035
-0.010022258
0.12222299
-0.011262031
0.12095209
-0.012444899
0.11989186
-0.013561948
0.11903481
-0.01460831
0.11837259
-0.015580963
0.1178962
-0.016477557
0.11759611
-0.017296557
0.11746246
-0.018037296
0.11748524
-0.018699784
0.11765442
-0.019284587
0.1179601
-0.019792781
0.11839253
-0.020225915
0.11894226
-0.020585972
0.11960017
-0.020875312
0.12035754
-0.021096642
0.12120608
-0.021252977
0.12213799
-0.021347584
0.12314595
-0.02138395
0.1242232
-0.021365732
0.12536349
-0.021296711
0.1265611
-0.021180748
0.1278109
-0.021021744
0.12910824
-0.020823594
0.13044903
-0.02059016
0.13182969
-0.020325235
0.13324711
-0.020032522
0.13469868
-0.019715615
0.13618225
-0.019377996
0.13769609
-0.019023033
0.13923893
-0.018653999
0.14080989
-0.018274088
0.1424085
-0.017886493
0.14403472
-0.017494406
0.14568894
-0.017101379
0.14737196
-0.01671072
0.14908527
-0.01632845
0.15083058
-0.015955323
0.15261161
-0.015615288
0.15442986
-0.015270589
0.15629798
-0.015100303
0.15820578
-0.014655656
0.16021522
-0.01549547
-0.01365796
0.15005208
0.00078000125
0.14676314
-0.00024395045
0.1434658
-0.0015292292
0.14041802
-0.0030279281
0.13762313
-0.0046135649
0.13507486
-0.0061872207
0.13277506
-0.0077224582
0.13072381
-0.0092107807
0.12891867
-0.010639759
0.12735444
-0.011997717
0.12602329
-0.013277162
0.12491583
-0.014473494
0.12402186
-0.015583588
0.12333073
-0.01660543
0.12283146
-0.017538027
0.12251294
-0.018381263
0.12236409
-0.01913574
0.122374
-0.019802694
0.12253202
-0.020383932
0.12282782
-0.020881769
0.12325148
-0.021298978
0.12379358
-0.021638736
0.12444517
-0.021904567
0.12519788
-0.022100294
0.12604391
-0.022229985
0.12697608
-0.022297897
0.12798779
-0.022308422
0.12907308
-0.022266038
0.13022659
-0.022175259
0.13144359
-0.022040587
0.1327199
-0.021866476
0.13405196
-0.021657294
0.13543674
-0.0214173
0.13687175
-0.021150623
0.13835501
-0.020861256
0.13988503
-0.020553059
0.14146081
-0.020229774
0.14308178
-0.019895056
0.14474783
-0.019552545
0.1464593
-0.019205876
0.148217
-0.018859081
0.15002219
-0.018515906
0.1518768
-0.018183069
0.15378304
-0.01786156
0.15574502
-0.017577268
0.15776493
-0.017290498
0.1598543
-0.017189673
0.16200737
-0.016808731
0.16426889
-0.017756985
-0.015969771
0.18890877
0.0053821037
-0.19351087
0.18509873
0.0035660878
0.1817067
0.0018628057
0.17856157
0.00011719812
0.17562601
-0.0016780051
0.17287498
-0.0034361948
0.17029027
-0.0051377417
0.16786287
-0.0067833803
0.1655889
-0.0083657936
0.16346622
-0.0098750318
0.16149295
-0.011303896
0.15966699
-0.012647537
0.1579857
-0.013902297
0.15644579
-0.015065514
0.15504332
-0.016135566
0.15377385
-0.017111786
0.15263243
-0.017994322
0.15161378
-0.018784041
0.15071231
-0.019482465
0.14992225
-0.020091712
0.14923771
-0.020614434
0.14865273
-0.021053752
0.14816136
-0.0214132
0.14775773
-0.021696664
0.14743607
-0.021908322
0.14719075
-0.022052583
0.14701636
-0.022134026
0.14690766
-0.022157342
0.14685968
-0.022127282
0.1468677
-0.022048605
0.14692725
-0.02192603
0.14703416
-0.021764204
0.14718453
-0.021567666
0.14737474
-0.021340831
0.14760146
-0.021087977
0.14786165
-0.02081325
0.14815255
-0.020520678
0.1484717
-0.0202142
0.1488169
-0.01989775
0.14918629
-0.019575258
0.14957829
-0.019251084
0.14999167
-0.01892929
0.15042567
-0.018617066
0.15087976
-0.018315646
0.15135455
-0.018052058
0.15184989
-0.017785843
0.15237027
-0.017710048
0.15291137
-0.017349833
0.15349616
-0.018341776
-0.01656236
0.21685766
0.0087804358
-0.22025599
0.21338377
0.0070399763
0.21017096
0.0050756193
0.20706564
0.0032225126
0.20401904
0.0013685922
0.20106212
-0.00047927269
0.19821176
-0.002287378
0.19547247
-0.0040440876
0.19285015
-0.0057434723
0.19035163
-0.0073765138
0.18798211
-0.0089343811
0.185745
-0.010410421
0.18364228
-0.011799577
0.18167465
-0.013097888
0.17984158
-0.014302498
0.17814145
-0.015411652
0.1765717
-0.016424575
0.17512902
-0.017341364
0.17380947
-0.018162909
0.17260858
-0.018890821
0.1715215
-0.019527362
0.17054312
-0.020075368
0.1696681
-0.02053818
0.16889101
-0.020919577
0.16820639
-0.021223699
0.16760879
-0.021454982
0.16709285
-0.021618088
0.16665335
-0.021717839
0.16628522
-0.021759154
0.16598361
-0.021746993
0.16574388
-0.021686303
0.16556165
-0.021581976
0.1654328
-0.021438814
0.16535348
-0.021261506
0.16532011
-0.02105461
0.16532941
-0.020822556
0.1653784
-0.020569663
0.16546437
-0.020300166
0.16558491
-0.020018297
0.16573796
-0.019728302
0.16592174
-0.019434868
0.16613487
-0.019142418
0.16637633
-0.018858531
0.16664564
-0.018584951
0.16694263
-0.01834905
0.16726854
-0.018111753
0.16762259
-0.018064094
0.16801307
-0.017740319
0.16842195
-0.018750653
-0.017036145
0.24376658
0.01150439
-0.24649054
0.24091614
0.0098904152
0.23806293
0.0079288308
0.23521597
0.0060694759
0.23233816
0.0042463965
0.22945034
0.002408549
0.22658372
0.000579241
0.2237576
-0.0012179679
0.2209879
-0.0029737695
0.21829055
-0.0046791639
0.21567941
-0.0063232425
0.21316548
-0.007896493
0.21075738
-0.0093914703
0.20846165
-0.010802161
0.20628294
-0.012123784
0.20422412
-0.013352831
0.20228654
-0.014487003
0.20047026
-0.015525081
0.19877418
-0.01646683
0.19719628
-0.017312916
0.19573373
-0.018064815
0.19438309
-0.01872473
0.19314042
-0.019295504
0.19200137
-0.019780533
0.19096136
-0.02018369
0.19001562
-0.020509234
0.18915927
-0.020761739
0.18838744
-0.020946008
0.18769529
-0.021067011
0.1870781
-0.021129805
0.18653129
-0.021139486
0.18605044
-0.02110113
0.18563138
-0.021019753
0.18527016
-0.020900282
0.18496308
-0.020747532
0.18470673
-0.020566204
0.18449796
-0.0203609
0.18433395
-0.020136149
0.18421214
-0.019896488
0.18413032
-0.019646485
0.18408661
-0.019391154
0.18407951
-0.019135319
0.18410784
-0.01888686
0.18417118
-0.018648293
0.18426863
-0.018446503
0.18440291
-0.018246029
0.18456761
-0.018228796
0.18478463
-0.017957336
0.18499005
-0.018956077
-0.017368672
0.26927435
0.013537343
-0.2713073
0.26710631
0.01205846
0.26476454
0.010270593
0.26232532
0.0085087024
0.25979657
0.0067751475
0.25718847
0.005016645
0.25452715
0.0032405598
0.25183678
0.0014724011
0.24913736
-0.00027434799
0.24644869
-0.0019904948
0.24379007
-0.0036646159
0.24117862
-0.0052850443
0.23862907
-0.0068419263
0.23615392
-0.0083270111
0.23376346
-0.0097333227
0.23146585
-0.01105522
0.22926727
-0.012288424
0.22717212
-0.013429931
0.2251832
-0.01447791
0.2233019
-0.015431619
0.2215284
-0.016291316
0.21986184
-0.017058162
0.21830045
-0.017734123
0.2168418
-0.018321877
0.21548283
-0.018824716
0.21422004
-0.019246454
0.21304964
-0.01959133
0.21196755
-0.019863923
0.21096961
-0.020069066
0.21005157
-0.020211768
0.20920922
-0.020297139
0.20843843
-0.020330336
0.20773518
-0.020316504
0.20709564
-0.02026074
0.20651617
-0.020168064
0.20599338
-0.020043414
0.20552413
-0.019891649
0.20510556
-0.019717575
0.20473509
-0.019526028
0.2044105
-0.019321894
0.20412986
-0.019110512
0.20389167
-0.018897127
0.20369466
-0.018689848
0.20353853
-0.018492161
0.2034218
-0.018329774
0.20334838
-0.018172614
0.2033071
-0.018187512
0.20333116
-0.017981402
0.20331537
-0.018940287
-0.01753776
0.29298512
0.014868485
-0.29431627
0.29150588
0.013537702
0.28978339
0.011993085
0.28788475
0.010407337
0.28584484
0.0088150585
0.28367447
0.0071870174
0.28139205
0.0055229822
0.27902082
0.0038436305
0.27658209
0.0021643859
0.27409601
0.00049558155
0.27158279
-0.0011513977
0.26906216
-0.0027644087
0.26655243
-0.0043321968
0.26407019
-0.0058447793
0.2616302
-0.007293328
0.25924521
-0.0086702268
0.25692598
-0.0099691934
0.25468133
-0.011185281
0.25251824
-0.012314821
0.25044198
-0.013355366
0.24845629
-0.014305621
0.24656348
-0.015165353
0.24476466
-0.015935303
0.24305987
-0.016617085
0.24144824
-0.017213087
0.23992815
-0.017726369
0.23849738
-0.018160557
0.23715321
-0.01851975
0.23589256
-0.018808421
0.23471212
-0.019031323
0.23360839
-0.019193415
0.23257784
-0.019299783
0.23161691
-0.019355575
0.23072213
-0.01936596
0.22989015
-0.019336082
0.22911779
-0.019271049
0.22840206
-0.019175928
0.22774026
-0.019055771
0.22712992
-0.018915683
0.22656888
-0.018760862
0.22605532
-0.018596952
0.22558782
-0.018429626
0.22516514
-0.018267166
0.22478712
-0.01811414
0.22445192
-0.017994581
0.22416431
-0.017884997
0.22390943
-0.017932637
0.22372885
-0.017800816
0.22348371