/*--------------------------------*- C++ -*----------------------------------*\
  =========                 |
  \\      /  F ield         | OpenFOAM: The Open Source CFD Toolbox
   \\    /   O peration     | Website:  https://openfoam.org
    \\  /    A nd           | Version:  6
     \\/     M anipulation  |
\*---------------------------------------------------------------------------*/
FoamFile
{
    version     2.0;
    format      ascii;
    class       volVectorField;
    location    "196";
    object      U_0;
}
// * * * * * * * * * * * * * * * * * * * * * * * * * * * * * * * * * * * * * //

dimensions      [0 1 -1 0 0 0 0];

internalField   nonuniform List<vector> 
9200
(
(0.0010393466 0.001419982 -5.9201845e-20)
(0.013676069 -0.0020583677 4.6042536e-20)
(0.038313172 -0.0058665699 -3.8501739e-20)
(0.072274446 -0.0097635078 -6.0257752e-20)
(0.11376476 -0.013490032 1.8826965e-20)
(0.16158091 -0.016605662 3.2743881e-20)
(0.21467151 -0.01881729 -1.2268009e-20)
(0.27206611 -0.019973897 9.2688622e-21)
(0.33285626 -0.02001123 1.6803427e-20)
(0.39616352 -0.018929059 1.4848073e-21)
(0.46111561 -0.016779824 -2.1456337e-20)
(0.52683692 -0.01365774 2.0670005e-20)
(0.59245074 -0.0096880068 -4.0422149e-20)
(0.65709137 -0.005015785 -2.1133902e-20)
(0.71992478 0.00020555301 5.9046527e-21)
(0.78017508 0.0058240867 -2.5131675e-20)
(0.83717066 0.011712804 2.5217114e-20)
(0.89046883 0.017918503 2.2243191e-20)
(0.93967078 0.024573403 -2.9929816e-22)
(0.98205193 0.028293371 -1.6691894e-21)
(0.0052521812 -0.0013462734 -1.7059354e-20)
(0.026962504 -0.0089890277 3.9747712e-20)
(0.061670123 -0.014809766 2.3576297e-20)
(0.1062949 -0.019172271 -1.1569758e-19)
(0.15873567 -0.022213999 -1.2727089e-20)
(0.21753354 -0.023720688 7.3297082e-20)
(0.28137298 -0.023595099 -3.5476401e-20)
(0.34900604 -0.021868968 -8.3905572e-21)
(0.41923924 -0.018645527 3.4287542e-20)
(0.49090948 -0.014080844 -4.3259581e-20)
(0.56287237 -0.0083759536 -3.0338482e-20)
(0.63400852 -0.0017665974 7.1921436e-20)
(0.70324335 0.0054883913 3.829405e-20)
(0.76957588 0.013118629 -6.7976559e-20)
(0.83211252 0.020852078 1.4623691e-20)
(0.89010043 0.028419699 -3.6733401e-20)
(0.94296923 0.035569666 -1.3777195e-20)
(0.99043237 0.042140876 7.0974775e-20)
(1.0323561 0.047715297 2.9641977e-20)
(1.0669349 0.049139675 -8.3478325e-20)
(0.010858428 -0.0040424163 3.6773459e-20)
(0.043953418 -0.015431078 2.5047368e-21)
(0.090515444 -0.022552285 2.2341713e-20)
(0.14711141 -0.026497361 9.8116828e-22)
(0.21134256 -0.0278863 -4.077394e-20)
(0.2814677 -0.026795118 1.8576404e-20)
(0.35587043 -0.023382732 1.34203e-20)
(0.43299011 -0.017921541 -5.0327706e-20)
(0.51132481 -0.010735655 5.7261861e-20)
(0.58942618 -0.0021838854 1.4256688e-20)
(0.66590921 0.0073478996 -5.4300712e-20)
(0.73948041 0.017460256 -1.8237403e-20)
(0.80897604 0.027756554 9.0591621e-21)
(0.8734027 0.037859261 2.3444738e-20)
(0.93197368 0.047424031 -1.1362505e-20)
(0.98413373 0.056148957 2.7877729e-20)
(1.0295741 0.063789155 -2.0188242e-20)
(1.0682646 0.070204371 -7.0123592e-20)
(1.1003322 0.075119354 -2.3796274e-20)
(1.1249113 0.076641211 4.865982e-20)
(0.017957216 -0.006422164 2.4508016e-20)
(0.064777001 -0.020694801 5.1039227e-20)
(0.1248523 -0.02806085 1.9881695e-20)
(0.19446967 -0.030464069 1.2990096e-20)
(0.27094934 -0.029094845 1.7275703e-20)
(0.35224882 -0.024388982 -4.7720174e-20)
(0.43643142 -0.016825977 -2.5646857e-20)
(0.52162012 -0.006976675 0)
(0.606029 0.0045670266 1.3920617e-20)
(0.68798712 0.017211725 -5.8523395e-21)
(0.76597523 0.030373914 -9.7934952e-20)
(0.83867453 0.043499623 -1.5774818e-20)
(0.90501532 0.056086606 6.5103201e-20)
(0.96421576 0.067704122 4.84427e-22)
(1.0158035 0.0780077 -1.5725567e-21)
(1.0596156 0.086746775 2.1957495e-20)
(1.0957773 0.093772209 -5.2647203e-21)
(1.12468 0.099065313 -6.1029735e-20)
(1.1468648 0.10259706 -4.5851231e-20)
(1.1622957 0.10341383 6.9520516e-20)
(0.026579422 -0.0082056888 -3.9194206e-21)
(0.089344028 -0.024033508 -5.1256325e-21)
(0.16430755 -0.030264991 5.6599412e-20)
(0.24758122 -0.029810022 1.8539325e-20)
(0.33624163 -0.024513031 -3.1955068e-20)
(0.42795129 -0.015239863 1.216384e-20)
(0.52047266 -0.0028513664 2.6402864e-21)
(0.61166362 0.011737091 3.3609171e-20)
(0.69954717 0.027640137 5.6599508e-21)
(0.78236843 0.044028763 -1.3204741e-20)
(0.85865411 0.060147717 6.0154041e-20)
(0.92726917 0.075340462 -5.8009361e-20)
(0.98745682 0.089072851 -1.3216614e-19)
(1.0388531 0.10094901 -5.5773038e-21)
(1.0814726 0.11071707 8.3150776e-20)
(1.1156656 0.11826403 0)
(1.1420549 0.12360581 1.0118958e-20)
(1.1614669 0.12689054 -1.5459772e-20)
(1.174818 0.12829868 -8.5994603e-21)
(1.1826673 0.12744913 2.0992231e-20)
(0.036666912 -0.0090895804 -5.4309131e-21)
(0.11731512 -0.024685359 4.3578747e-21)
(0.2081187 -0.02814018 -8.7629843e-21)
(0.30515704 -0.023414957 2.8472396e-20)
(0.40533542 -0.013075594 -2.9392665e-20)
(0.50607151 0.0015226128 -1.6927024e-20)
(0.60490494 0.019095138 3.7364235e-20)
(0.69954964 0.038365251 4.7595456e-21)
(0.78800397 0.058167642 -2.4436059e-20)
(0.86863411 0.077483 6.9867563e-20)
(0.94023979 0.095458637 5.239389e-22)
(1.0020956 0.11143156 -8.0444322e-20)
(1.053957 0.1249429 0)
(1.0960274 0.13573749 3.9542119e-20)
(1.1288922 0.14374842 5.5236007e-21)
(1.1534279 0.14906892 -7.7566405e-20)
(1.1706991 0.15191912 -1.9586923e-20)
(1.1818624 0.15262366 -1.2467633e-20)
(1.1880592 0.15152604 -1.4709389e-20)
(1.1901461 0.14858491 4.0420526e-20)
(0.048058872 -0.0087674058 -1.7277959e-20)
(0.14808311 -0.021931995 -2.2198271e-21)
(0.25514072 -0.020797836 3.0380505e-20)
(0.36546387 -0.010412795 3.7484311e-20)
(0.47590424 0.0059015868 -1.9944734e-20)
(0.5837427 0.026269305 -6.9163035e-20)
(0.6864419 0.048977208 -2.7995798e-20)
(0.78176209 0.072417787 7.8929215e-20)
(0.86790201 0.095212476 8.5778142e-21)
(0.94358922 0.11624961 -2.4873484e-20)
(1.0081259 0.13469827 1.3642213e-20)
(1.0613871 0.15001555 -4.3194494e-21)
(1.1037693 0.16193658 0)
(1.1360975 0.17044427 2.7203485e-20)
(1.1595046 0.17572308 -7.9322418e-20)
(1.1753021 0.17810368 -3.147553e-20)
(1.184857 0.17800811 8.1054581e-20)
(1.1894921 0.17590943 -4.2969849e-21)
(1.190403 0.17225556 3.5561072e-21)
(1.188508 0.16719296 2.7111573e-20)
(0.060485255 -0.0069573645 -3.2414616e-20)
(0.18077774 -0.015170382 -8.1624323e-20)
(0.30388931 -0.007583528 2.5797756e-21)
(0.42642559 0.0097033556 7.0161814e-20)
(0.54535153 0.032631553 6.2424379e-20)
(0.65798105 0.058820043 -7.1574526e-20)
(0.76190888 0.086176507 -2.8275121e-22)
(0.85518296 0.11285231 8.5522553e-20)
(0.93645352 0.13737837 4.8828073e-20)
(1.0050415 0.1586937 -5.4218411e-20)
(1.0609356 0.17613563 -9.2334222e-20)
(1.1047243 0.18941354 -3.1589829e-21)
(1.1374759 0.19855943 4.212787e-20)
(1.1605874 0.20385856 -6.6056282e-21)
(1.1756248 0.20577018 -1.2868787e-20)
(1.1841777 0.20484918 1.9690809e-20)
(1.1877427 0.20167896 4.388062e-20)
(1.1876454 0.19682586 -4.3859434e-20)
(1.1849954 0.19077882 -1.0232202e-19)
(1.180625 0.18377378 2.4566882e-20)
(0.073537221 -0.0034329738 -3.4979752e-20)
(0.21422689 -0.0039890262 -1.7388612e-19)
(0.35251659 0.011839376 8.2103245e-20)
(0.48562801 0.037018337 9.276752e-20)
(0.61085383 0.066835553 5.797057e-20)
(0.72576731 0.098481179 8.61071e-21)
(0.82834808 0.12959696 -1.062401e-19)
(0.91719003 0.15824269 0)
(0.99162749 0.18302814 -6.8748594e-20)
(1.0517521 0.20311206 -1.5202411e-20)
(1.0983384 0.2181486 5.470347e-20)
(1.1327008 0.22821082 1.097338e-20)
(1.156511 0.23369259 -4.5613857e-20)
(1.1716068 0.23519946 -4.9081365e-20)
(1.1798204 0.23344334 2.4287682e-20)
(1.1828451 0.22915322 4.4822894e-20)
(1.1821489 0.22300984 -5.5600412e-20)
(1.1789361 0.21560821 -1.0751122e-19)
(1.1741469 0.20742222 -3.1513623e-21)
(1.1684568 0.19871879 2.7046402e-20)
(0.086650452 0.001961386 -3.5448996e-21)
(0.2469602 0.011816635 8.7913245e-20)
(0.39884742 0.037492311 -1.6479245e-20)
(0.54040469 0.071218384 -8.4309153e-20)
(0.66949906 0.10778894 4.5164374e-20)
(0.78421957 0.14411544 4.9175457e-20)
(0.88318945 0.17775669 5.5356786e-21)
(0.96577875 0.2068849 -9.9502497e-20)
(1.0321763 0.23038802 -2.5048782e-21)
(1.0833329 0.24781553 5.0503546e-20)
(1.120807 0.25926301 5.9854761e-21)
(1.1465558 0.26523619 -1.9717209e-20)
(1.1627108 0.26650532 -7.5704633e-20)
(1.1713765 0.26396621 -6.2554023e-21)
(1.1744762 0.25852428 4.3533356e-20)
(1.1736548 0.25101087 3.7022015e-20)
(1.1702383 0.24213394 1.9793442e-20)
(1.1652403 0.23245874 -5.2994848e-20)
(1.1594014 0.22240416 1.295745e-20)
(1.1532252 0.21223798 8.2659103e-20)
(-0.0012932616 0.0014346599 -1.1234448e-21)
(-0.0047459607 0.0031874151 2.064697e-21)
(-0.01077136 0.0041359045 8.795001e-22)
(-0.017754288 0.0045395364 -2.4411024e-21)
(-0.024740319 0.0045654169 -1.4114825e-21)
(-0.031299595 0.0043260389 1.5460011e-21)
(-0.037161329 0.0039035384 -6.8700812e-21)
(-0.042147445 0.0033577219 -5.957304e-21)
(-0.046157778 0.0027313813 1.1171998e-20)
(-0.049146192 0.0020548306 -9.7427495e-21)
(-0.051100656 0.0013493003 -1.9833006e-22)
(-0.052030446 0.00062942175 3.6673447e-21)
(-0.051957739 -9.4889755e-05 -6.3295576e-22)
(-0.050911883 -0.00081693077 2.2818746e-20)
(-0.048925779 -0.0015318452 3.0401077e-22)
(-0.046035342 -0.0022351746 -4.0882877e-20)
(-0.042281798 -0.0029222687 7.5385632e-21)
(-0.037703442 -0.0035910394 2.3864114e-20)
(-0.032308693 -0.0042399875 -4.3852381e-20)
(-0.026156962 -0.0048211142 -2.7739209e-20)
(-0.0016522001 0.0041808667 -5.3716033e-21)
(-0.0053974815 0.0092681389 1.086544e-20)
(-0.01121851 0.012007445 -1.0191544e-20)
(-0.017658027 0.013153765 3.9229745e-21)
(-0.023856434 0.013195414 4.8121441e-21)
(-0.029433319 0.012462725 7.1324186e-22)
(-0.034152322 0.011197014 -2.250949e-20)
(-0.03786038 0.0095738972 -2.0370243e-21)
(-0.0404743 0.0077189874 2.0163541e-20)
(-0.041958923 0.0057212304 -5.0473604e-21)
(-0.042308951 0.0036428643 -2.1762591e-20)
(-0.041537338 0.0015267123 4.8973173e-21)
(-0.039667714 -0.00059830614 2.2635422e-20)
(-0.036729082 -0.0027127619 1.0308392e-20)
(-0.032752034 -0.0048026903 2.1854287e-20)
(-0.02776917 -0.0068555099 -1.977073e-20)
(-0.021824794 -0.0088582214 -2.1672946e-20)
(-0.014966269 -0.010804227 2.118462e-20)
(-0.007129016 -0.012679003 2.6810368e-20)
(0.0018742972 -0.014317226 1.5854767e-20)
(-0.0023034294 0.0065602332 -4.3568693e-21)
(-0.0065392243 0.014480197 -5.6387549e-21)
(-0.011892132 0.018710544 3.0723942e-22)
(-0.0172111 0.020428181 1.0959881e-21)
(-0.021819143 0.020400325 6.6918409e-21)
(-0.025431042 0.019151667 1.066517e-20)
(-0.027877233 0.017066288 -3.7227639e-21)
(-0.02905327 0.014423783 -1.8896166e-20)
(-0.028909037 0.011424352 6.5413177e-21)
(-0.02743105 0.0082099048 1.2862571e-20)
(-0.024627714 0.0048797754 5.8340861e-21)
(-0.020520108 0.0015022376 1.8159106e-20)
(-0.015135985 -0.0018768647 1.7295916e-21)
(-0.0085053976 -0.0052272496 -3.386453e-20)
(-0.00065689124 -0.0085276123 1.2020177e-21)
(0.0083810191 -0.011759112 -2.2139212e-20)
(0.018556869 -0.014904099 -2.4466305e-20)
(0.029802183 -0.017953756 4.5819715e-20)
(0.042304967 -0.02085512 2.534935e-20)
(0.056738575 -0.02324777 1.2239338e-22)
(-0.0031290278 0.0083689706 -5.2833076e-21)
(-0.0078963993 0.018336514 -8.4815281e-21)
(-0.012438986 0.02358781 4.3593051e-21)
(-0.016026535 0.02560966 4.1463454e-21)
(-0.018235024 0.025382746 2.0105709e-21)
(-0.018912652 0.023589323 7.3209959e-21)
(-0.017984717 0.020730274 9.3124783e-21)
(-0.01541671 0.017170378 -1.3511354e-21)
(-0.011207047 0.013171314 -1.1481947e-20)
(-0.0053752332 0.0089189309 -2.9071879e-20)
(0.0020481117 0.0045434361 6.1892576e-23)
(0.011026508 0.00013430933 4.0697823e-20)
(0.021522225 -0.0042489532 -1.8383173e-20)
(0.033497851 -0.0085675876 -1.2296088e-20)
(0.046920512 -0.012795549 5.5348912e-22)
(0.061760094 -0.016911859 3.2302646e-20)
(0.077953013 -0.020901674 -1.4829545e-20)
(0.095392264 -0.02476338 -5.3339188e-20)
(0.11439845 -0.028379723 4.5765011e-20)
(0.13634538 -0.031073101 3.301317e-20)
(-0.0039704099 0.0094657329 -6.8788992e-22)
(-0.0090916585 0.020487793 -1.2534741e-20)
(-0.012364471 0.026159088 -3.4144537e-20)
(-0.01355254 0.02814334 -5.7241624e-21)
(-0.01253324 0.027555008 -3.6222744e-21)
(-0.0093167242 0.025188065 6.3051039e-21)
(-0.0039456442 0.021627412 -4.646196e-21)
(0.0035261294 0.01729896 -8.8070272e-21)
(0.013036823 0.012508751 2.189971e-20)
(0.024521245 0.0074744415 5.0567073e-21)
(0.037915542 0.0023489023 -2.5290296e-20)
(0.05315745 -0.0027627865 1.1078279e-20)
(0.070186873 -0.0077908777 0)
(0.088946589 -0.012691307 1.2089576e-20)
(0.10938545 -0.017436924 -9.7016182e-21)
(0.13145742 -0.022009902 -1.433712e-20)
(0.15507408 -0.026408652 -1.5738947e-21)
(0.18006762 -0.030659427 -2.2181556e-21)
(0.20685343 -0.034576541 4.6147065e-20)
(0.23766361 -0.037019877 -1.0470127e-20)
(-0.0046450981 0.009780863 -7.5356683e-21)
(-0.0096772513 0.020747881 2.4516402e-20)
(-0.011064381 0.026160979 -1.0499347e-20)
(-0.0090968326 0.027724446 -2.7469283e-20)
(-0.0039797202 0.026601696 -2.7548148e-20)
(0.0040961842 0.023648409 -1.492157e-20)
(0.014954152 0.019496457 -6.9059599e-22)
(0.028436239 0.014604705 5.5499784e-21)
(0.044403152 0.0093034455 1.9615879e-20)
(0.062730503 0.0038284137 7.3530857e-21)
(0.083304324 -0.0016547577 -7.1862214e-21)
(0.10601898 -0.007032242 -2.0102308e-21)
(0.13077358 -0.012229102 -3.8191712e-20)
(0.15746945 -0.017199758 -1.2693645e-20)
(0.18601201 -0.02191974 1.8750608e-20)
(0.21631179 -0.026379724 -2.1021675e-20)
(0.24823226 -0.030602231 -8.9730584e-21)
(0.2815187 -0.034670616 3.0440467e-20)
(0.31660707 -0.038364829 5.0472073e-20)
(0.35665019 -0.03996411 3.3559671e-21)
(-0.0049617687 0.0093139993 1.6783305e-20)
(-0.0091662696 0.019097711 1.4467939e-20)
(-0.0078593649 0.023563367 5.114549e-20)
(-0.0018585388 0.024328944 2.3387983e-20)
(0.0082957247 0.022523784 1.8251775e-22)
(0.022221943 0.019014385 -3.9388457e-20)
(0.039597446 0.014440935 -2.4313861e-20)
(0.06014791 0.0092663583 1.0465817e-20)
(0.083639124 0.0038232262 1.4401587e-20)
(0.1098667 -0.0016513019 -1.3113712e-20)
(0.13864564 -0.0069910132 -4.4038717e-20)
(0.16980172 -0.012082852 2.96185e-20)
(0.20316407 -0.016854164 2.0020552e-20)
(0.23855948 -0.021264001 -2.7551157e-20)
(0.27581233 -0.02529641 1.1650136e-20)
(0.31474814 -0.028957175 2.4197614e-20)
(0.35514549 -0.032303061 8.0723947e-21)
(0.39663391 -0.035506686 -1.1764212e-20)
(0.43957706 -0.038392652 -1.4190299e-20)
(0.48798515 -0.038634413 5.8727645e-21)
(-0.0047307765 0.0081236737 1.1093846e-20)
(-0.0070586006 0.015671177 -2.335272e-20)
(-0.0020293654 0.018562033 8.6200554e-21)
(0.0090325218 0.018216225 3.3587968e-20)
(0.025256364 0.01565115 5.2124341e-20)
(0.046066343 0.011695603 2.0276511e-20)
(0.07098453 0.0069609511 -5.8639359e-21)
(0.099601958 0.0018829494 -1.2286284e-20)
(0.13156895 -0.0032272008 -6.2057472e-21)
(0.16657569 -0.0081496609 3.4240836e-20)
(0.20433426 -0.012733324 -4.5104389e-21)
(0.24456487 -0.016879192 -1.6643301e-20)
(0.28698472 -0.020528691 -1.9693573e-20)
(0.33130001 -0.023656418 -4.744374e-20)
(0.37720462 -0.026265539 2.3238704e-20)
(0.42438774 -0.028387867 -1.4095984e-20)
(0.47249977 -0.030127626 2.5993399e-20)
(0.52103622 -0.031783195 2.1040824e-20)
(0.570214 -0.033350684 -8.5570394e-20)
(0.62470922 -0.032058846 -1.0807152e-22)
(-0.0037710521 0.0063146398 2.1925056e-20)
(-0.0028657661 0.010735096 -2.6165531e-20)
(0.007142106 0.011564137 -4.5013297e-20)
(0.024450236 0.0099249897 -2.7253782e-20)
(0.047870856 0.0066523054 -2.043987e-21)
(0.07662871 0.0024906161 1.3050095e-20)
(0.11007674 -0.0020153969 -2.8337696e-21)
(0.14765207 -0.0064879063 1.8118537e-20)
(0.18886097 -0.010663506 8.8685617e-21)
(0.23325197 -0.014362424 -1.1380172e-20)
(0.28039151 -0.017468953 8.8779136e-21)
(0.32984606 -0.019916809 -2.3903268e-20)
(0.38116884 -0.021678701 8.0504784e-21)
(0.43389088 -0.022759879 1.6756392e-20)
(0.48751939 -0.023194305 -2.6395136e-21)
(0.5415472 -0.023046895 1.6618982e-21)
(0.5954355 -0.022469449 -3.1957651e-22)
(0.64851789 -0.021870108 1.9590421e-20)
(0.70082245 -0.021445066 4.0434e-21)
(0.75745156 -0.018499084 -5.7334443e-22)
(-0.0019110144 0.0040273483 2.3692113e-20)
(0.0038694307 0.0046765204 5.7159962e-20)
(0.020315313 0.0031879644 -4.9244227e-20)
(0.045178289 0.00029442578 -9.9454151e-21)
(0.076965158 -0.0034241526 2.0256346e-20)
(0.11469624 -0.0073535872 2.1433718e-21)
(0.15753884 -0.011054958 -2.9815163e-20)
(0.20474833 -0.014244141 6.9848105e-21)
(0.25564952 -0.016737931 7.1097881e-21)
(0.30960475 -0.01842696 -2.6254079e-20)
(0.36598651 -0.019260101 1.2927328e-21)
(0.42415962 -0.01923187 -3.7174113e-20)
(0.48347105 -0.018372206 -3.6341015e-20)
(0.54324569 -0.016738279 6.568348e-20)
(0.60278817 -0.014407305 5.5627483e-21)
(0.6613889 -0.011475902 -1.5188794e-20)
(0.7183079 -0.0081020492 1.9363966e-20)
(0.77269907 -0.00459287 -9.1888135e-22)
(0.82408841 -0.00096805297 2.0364577e-20)
(0.87621973 0.0043280636 -1.9554146e-20)
(-0.018836418 -0.0050997035 5.8352046e-20)
(-0.010224656 -0.0056349268 1.5783666e-20)
(-0.00022119633 -0.0060688796 -3.5139557e-20)
(0.010823224 -0.0063341091 1.6790232e-20)
(0.022642463 -0.0065120463 0)
(0.035177881 -0.0066300891 0)
(0.048369657 -0.0066909723 -2.2974944e-20)
(0.062138071 -0.0067025386 -1.6502868e-20)
(0.076412712 -0.006674173 1.912259e-20)
(0.091134072 -0.0066126642 1.8174031e-20)
(0.10624718 -0.0065232042 1.0524251e-21)
(0.12170022 -0.0064103564 -1.0317634e-20)
(0.13744491 -0.0062780795 8.3268782e-21)
(0.15343601 -0.0061297207 1.8233714e-20)
(0.16963078 -0.0059681433 -5.2274164e-21)
(0.18598856 -0.0057958327 -1.0174934e-20)
(0.20247059 -0.0056149601 -4.3195867e-21)
(0.21903986 -0.0054274345 -4.425738e-21)
(0.23566092 -0.0052349479 7.3667175e-22)
(0.25229993 -0.0050390108 1.2286038e-21)
(0.26892453 -0.004840978 2.566631e-21)
(0.28550394 -0.0046420695 6.6539456e-21)
(0.30200899 -0.0044433843 2.4894392e-22)
(0.31841212 -0.004245912 -3.4514699e-21)
(0.33468749 -0.00405054 1.5558757e-22)
(0.35081105 -0.0038580601 -5.7709782e-22)
(0.36676052 -0.0036691721 1.2434363e-21)
(0.3825155 -0.0034844884 1.0522435e-21)
(0.39805748 -0.0033045375 -1.2987937e-21)
(0.41336983 -0.0031297676 -1.2218729e-22)
(0.42843781 -0.0029605506 3.5749251e-23)
(0.44324858 -0.0027971865 -3.5187591e-22)
(0.45779114 -0.0026399084 -4.0565459e-22)
(0.4720563 -0.0024888876 5.5413522e-23)
(0.48603665 -0.0023442393 -1.3809039e-22)
(0.4997265 -0.002206029 -2.2343164e-22)
(0.51312182 -0.0020742788 2.5571927e-22)
(0.52622027 -0.0019489745 2.9501978e-22)
(0.53902104 -0.0018300742 -8.2716076e-24)
(0.55152527 -0.0017175125 -1.5517463e-22)
(0.56373489 -0.0016112286 3.0406512e-23)
(0.57565652 -0.0015111219 -4.0144743e-23)
(0.58729032 -0.0014172636 9.2204167e-23)
(0.59866531 -0.0013293173 2.1976925e-23)
(0.60973586 -0.0012485665 -1.1394723e-22)
(0.62069397 -0.001171802 -6.7614357e-24)
(0.63106202 -0.001111254 -7.2289537e-26)
(0.64235065 -0.0010339582 -3.5614819e-24)
(0.65042866 -0.0010508169 2.9453611e-23)
(0.66700976 -0.00087557262 3.6050978e-22)
(0.010445877 -0.015017612 -1.2746817e-20)
(0.018179708 -0.016641015 -6.3302335e-20)
(0.027779228 -0.017915417 -3.0541942e-20)
(0.03838516 -0.018672075 3.8476016e-20)
(0.049621005 -0.019183593 1.4662612e-20)
(0.061506649 -0.019529437 -1.8204929e-20)
(0.074012844 -0.01970987 4.6722022e-21)
(0.087062696 -0.019746497 2.544719e-20)
(0.10059317 -0.019667286 9.199266e-23)
(0.11455404 -0.019491706 -7.6591255e-21)
(0.12889721 -0.019234365 -1.3021016e-20)
(0.14357605 -0.018908317 -8.5245313e-21)
(0.15854668 -0.018524978 1.7772335e-20)
(0.17376759 -0.018094006 8.9295469e-21)
(0.18919903 -0.017623685 -1.6522438e-20)
(0.20480281 -0.017121237 -6.0390587e-21)
(0.22054219 -0.016593002 3.2145048e-21)
(0.23638181 -0.016044576 8.3716327e-21)
(0.2522876 -0.015480937 6.983228e-21)
(0.2682268 -0.014906547 -6.9727176e-21)
(0.28416801 -0.014325419 -3.1685477e-21)
(0.30008118 -0.01374118 1.3605352e-21)
(0.31593774 -0.013157104 3.8682945e-22)
(0.33171064 -0.012576147 1.2113959e-21)
(0.3473744 -0.012000965 1.8368395e-22)
(0.36290524 -0.01143393 -3.266167e-22)
(0.37828109 -0.010877148 -7.2434918e-22)
(0.39348167 -0.01033246 9.7156709e-22)
(0.40848848 -0.0098014623 8.2483038e-22)
(0.42328489 -0.0092855094 -1.5147464e-22)
(0.43785606 -0.0087857303 5.5306165e-22)
(0.45218898 -0.0083030396 -2.3880928e-22)
(0.46627246 -0.0078381516 -3.7069983e-22)
(0.48009705 -0.0073915969 -6.0999198e-22)
(0.49365503 -0.0069637383 4.4171777e-22)
(0.50694038 -0.0065547899 -1.5478401e-23)
(0.51994868 -0.0061648361 1.6124856e-22)
(0.53267719 -0.0057938522 -4.4174943e-22)
(0.54512467 -0.0054417313 3.7189776e-22)
(0.55729178 -0.0051082952 6.7175474e-23)
(0.56918002 -0.004793379 -1.028539e-22)
(0.58079547 -0.0044966989 1.7613893e-22)
(0.59213787 -0.0042184839 2.3339963e-22)
(0.60323548 -0.0039577442 1.6926763e-22)
(0.61404285 -0.0037183254 1.6767561e-22)
(0.62474912 -0.003490672 -2.609867e-23)
(0.63488306 -0.0033112336 8.4047695e-23)
(0.64593234 -0.0030818934 7.6295685e-23)
(0.65383081 -0.0031323856 -1.946704e-22)
(0.67009294 -0.0026124737 -3.8026029e-23)
(0.0676147 -0.02402915 9.4528306e-21)
(0.073589684 -0.026749054 3.2950991e-21)
(0.082265522 -0.028805573 -1.21622e-20)
(0.091947837 -0.029968509 -1.2257901e-21)
(0.10198323 -0.030767869 1.4970589e-20)
(0.11254636 -0.031330897 -1.4887122e-20)
(0.12367599 -0.031636076 -2.9842273e-20)
(0.13529684 -0.031713011 1.4493523e-20)
(0.14735698 -0.031607642 1.8181967e-20)
(0.15982346 -0.031350062 -1.1598517e-20)
(0.17266063 -0.030961826 1.0190553e-21)
(0.18583086 -0.03046276 8.6860145e-21)
(0.19929788 -0.029870558 -1.5253542e-20)
(0.21302662 -0.029200246 2.909517e-21)
(0.22698249 -0.028464767 7.5194365e-21)
(0.24113147 -0.027675512 3.1596729e-23)
(0.25544022 -0.026842566 2.655631e-22)
(0.26987614 -0.025974904 -7.4150871e-21)
(0.2844074 -0.025080572 3.8616851e-21)
(0.29900309 -0.024166827 8.4749066e-21)
(0.31363324 -0.023240242 -3.8351769e-21)
(0.32826904 -0.022306782 -2.2130368e-21)
(0.34288284 -0.021371865 1.0124435e-21)
(0.35744834 -0.020440396 -1.7155333e-21)
(0.37194064 -0.019516803 1.3532257e-21)
(0.38633636 -0.018605056 7.1845935e-22)
(0.40061367 -0.017708685 1.5268414e-21)
(0.41475242 -0.016830795 -1.9526645e-21)
(0.42873412 -0.01597408 2.2235715e-21)
(0.44254199 -0.015140845 5.5188612e-22)
(0.45616098 -0.014333018 4.0322794e-22)
(0.46957775 -0.013552173 3.2134488e-22)
(0.48278068 -0.012799554 8.7325265e-22)
(0.49575982 -0.012076099 -1.3708647e-21)
(0.50850686 -0.011382471 3.7065706e-22)
(0.52101512 -0.010719082 1.094145e-22)
(0.53327948 -0.010086133 -4.517283e-23)
(0.54529643 -0.0094836376 8.6732031e-23)
(0.5570639 -0.0089114774 -3.7185151e-22)
(0.56858172 -0.0083694118 1.8293648e-22)
(0.57985049 -0.0078572218 -3.4987256e-23)
(0.59087536 -0.0073744891 3.9004732e-22)
(0.60165524 -0.0069216429 -1.8544711e-22)
(0.61221702 -0.0064970949 4.7323932e-23)
(0.62251558 -0.0061072338 4.3604639e-23)
(0.63273463 -0.0057363721 -7.3601348e-23)
(0.64241511 -0.0054444506 -1.2082995e-22)
(0.65300073 -0.0050705476 3.8810517e-22)
(0.66055083 -0.005154299 1.7271032e-22)
(0.67619468 -0.0043070734 -8.304044e-22)
(0.1502153 -0.031460435 1.5010125e-21)
(0.15354692 -0.035257401 -1.1566613e-20)
(0.16061625 -0.038010927 6.6441977e-21)
(0.16880593 -0.039479105 -1.3324741e-20)
(0.17698227 -0.040520697 -1.9758306e-21)
(0.18552349 -0.041302288 9.1599433e-21)
(0.19458423 -0.041757245 -9.7662215e-21)
(0.20408696 -0.041913719 1.5662778e-21)
(0.21398772 -0.041833339 1.29038e-20)
(0.22427603 -0.041554344 3.4032e-21)
(0.23493259 -0.041102054 -6.209696e-21)
(0.24593027 -0.040500459 -2.8638106e-21)
(0.25724164 -0.039771759 -5.8409055e-21)
(0.26883918 -0.038935066 -6.4553147e-21)
(0.2806943 -0.038006986 3.2356916e-21)
(0.29277771 -0.037002314 8.4620916e-22)
(0.30505983 -0.035934337 1.3679587e-21)
(0.31751108 -0.034815035 -3.3850422e-21)
(0.33010205 -0.033655262 -4.2428875e-21)
(0.34280373 -0.032464909 2.3616518e-21)
(0.35558768 -0.03125301 3.2251373e-21)
(0.36842625 -0.03002783 -1.563621e-21)
(0.38129273 -0.028796916 1.5867276e-21)
(0.39416147 -0.027567147 -3.9124063e-22)
(0.40700806 -0.026344759 -3.9196442e-21)
(0.4198094 -0.025135369 -3.0332831e-21)
(0.43254381 -0.023943993 -1.9026362e-22)
(0.44519108 -0.022775067 4.2858876e-22)
(0.45773258 -0.021632459 -2.210605e-21)
(0.47015122 -0.020519497 -8.5497417e-22)
(0.48243152 -0.019438986 2.2837666e-22)
(0.49455962 -0.018393242 -1.2498712e-21)
(0.50652322 -0.01738412 6.2623052e-24)
(0.51831165 -0.016413049 -4.2421042e-22)
(0.52991574 -0.015481072 -4.7193665e-22)
(0.54132788 -0.014588886 -5.1996021e-22)
(0.55254198 -0.013736884 -8.4133622e-22)
(0.56355345 -0.012925208 -5.4495883e-23)
(0.57435913 -0.012153805 -3.9160536e-24)
(0.58495764 -0.011422451 -5.1972737e-22)
(0.59534844 -0.01073095 -9.1606446e-23)
(0.60553535 -0.010078825 -3.3239763e-22)
(0.61551621 -0.0094667696 -4.3760623e-22)
(0.62531602 -0.008892685 3.7842357e-22)
(0.63489015 -0.0083654561 1.4821225e-23)
(0.64441467 -0.0078636372 1.8238044e-22)
(0.653448 -0.0074694012 -1.3247255e-22)
(0.6633707 -0.0069630171 -2.6691965e-22)
(0.67042283 -0.0070792258 -4.4687073e-23)
(0.68517995 -0.0059327705 4.6229935e-22)
(0.25468568 -0.036552762 -2.0900317e-20)
(0.25447022 -0.041393513 4.7585959e-20)
(0.25907334 -0.044745661 1.0348094e-20)
(0.26508414 -0.046442047 -1.5765314e-20)
(0.27070934 -0.047714319 -2.0227989e-21)
(0.27651996 -0.04874778 2.6232245e-21)
(0.2828355 -0.049413723 -1.6608185e-21)
(0.28957691 -0.049728104 -4.6861429e-21)
(0.29669659 -0.049761436 -4.0159168e-21)
(0.30420548 -0.049557058 -1.2207638e-20)
(0.31210219 -0.049141693 1.7897757e-20)
(0.32036939 -0.048540808 6.5219915e-21)
(0.32898701 -0.047778972 -1.6780526e-20)
(0.33793404 -0.046878026 1.0317574e-20)
(0.34718709 -0.045857308 8.3849909e-21)
(0.35672076 -0.044734321 -8.7923555e-22)
(0.36650847 -0.043525076 -3.1222224e-21)
(0.37652291 -0.042244257 -3.8197332e-21)
(0.38673644 -0.040905369 -1.3892586e-21)
(0.39712133 -0.039520863 -1.2304199e-21)
(0.40765013 -0.038102232 -3.0257623e-21)
(0.41829583 -0.03666008 0)
(0.42903218 -0.035204166 -1.3451921e-21)
(0.43983379 -0.033743435 3.9309523e-21)
(0.45067631 -0.032286041 5.4052697e-21)
(0.46153657 -0.030839368 -9.4112578e-22)
(0.47239267 -0.029410042 -2.9274471e-21)
(0.48322409 -0.02800395 3.0258427e-21)
(0.4940117 -0.02662626 2.5447323e-22)
(0.50473785 -0.025281444 3.4352501e-21)
(0.51538638 -0.023973308 -5.3459768e-22)
(0.52594262 -0.022705026 1.7173491e-21)
(0.53639342 -0.021479183 -7.996456e-22)
(0.54672708 -0.020297812 2.9094297e-22)
(0.55693341 -0.019162451 -4.3404119e-22)
(0.56700366 -0.018074188 5.6231764e-22)
(0.57693052 -0.017033724 4.571007e-22)
(0.58670813 -0.016041428 3.8255779e-22)
(0.59633202 -0.015097417 -9.5936716e-22)
(0.60579946 -0.014201586 6.8355861e-22)
(0.61510849 -0.013353856 -3.6957616e-22)
(0.62426146 -0.012553788 -1.1033293e-21)
(0.63325494 -0.011802412 1.4078328e-21)
(0.64211165 -0.011097235 -6.2006383e-23)
(0.65078777 -0.010449563 -1.5816252e-22)
(0.65944979 -0.009832693 -7.8246245e-24)
(0.66767837 -0.0093493149 -1.2622081e-22)
(0.67677431 -0.0087262803 -4.6583742e-22)
(0.68320622 -0.0088737299 8.7882491e-22)
(0.69685187 -0.0074649989 -4.4316125e-23)
(0.37635132 -0.038368171 -1.7495101e-20)
(0.37170979 -0.044270234 1.2832046e-20)
(0.37286692 -0.048161617 2.9754662e-21)
(0.37591048 -0.050098855 -7.635371e-21)
(0.37830529 -0.051669976 1.2055984e-20)
(0.38072296 -0.053042378 7.7914145e-21)
(0.38367604 -0.054030045 -1.2647701e-20)
(0.38710061 -0.054633108 -6.0679771e-21)
(0.39092927 -0.054918009 1.2697338e-20)
(0.39518246 -0.054927139 -1.5304978e-20)
(0.39987429 -0.054687521 -1.4063192e-20)
(0.40499511 -0.054224659 1.4129637e-20)
(0.41052866 -0.053563666 6.8193849e-21)
(0.41645722 -0.052727955 -4.203769e-21)
(0.42276019 -0.051739023 -1.8545591e-21)
(0.42941409 -0.050616757 -4.0581702e-21)
(0.43639353 -0.049379709 5.3047588e-21)
(0.44367202 -0.048045235 3.6682096e-21)
(0.45122231 -0.046629557 -3.2408298e-21)
(0.45901686 -0.045147824 3.1379493e-21)
(0.46702815 -0.043614168 2.7666816e-21)
(0.47522899 -0.042041736 -3.2111148e-21)
(0.48359277 -0.040442712 3.7056573e-22)
(0.49209365 -0.038828328 -3.2571652e-21)
(0.50070674 -0.037208876 7.245423e-21)
(0.50940824 -0.035593718 6.1080654e-21)
(0.51817556 -0.033991293 8.0973386e-22)
(0.52698736 -0.032409136 -1.7683248e-21)
(0.53582369 -0.030853898 3.7021846e-21)
(0.54466596 -0.029331373 7.1885334e-21)
(0.55349702 -0.027846534 2.3049342e-21)
(0.56230114 -0.026403575 3.3164945e-21)
(0.57106404 -0.025005959 1.9956252e-21)
(0.57977286 -0.02365647 7.4558184e-22)
(0.58841615 -0.022357277 -2.6374582e-22)
(0.59698386 -0.021109994 2.7203233e-21)
(0.60546735 -0.019915754 6.1992457e-22)
(0.61385938 -0.018775276 2.9487901e-22)
(0.62215405 -0.017688963 5.6232707e-23)
(0.63034717 -0.016656941 9.8967351e-22)
(0.63843532 -0.015679355 4.7020285e-23)
(0.64641926 -0.014755905 4.4247953e-22)
(0.65429426 -0.013888043 -1.2621912e-22)
(0.66208058 -0.013073004 -2.7735295e-22)
(0.6697355 -0.012324414 -1.521891e-22)
(0.67741445 -0.011610905 -4.2208827e-22)
(0.68472433 -0.011053614 1.6139928e-22)
(0.69287265 -0.010332414 -1.2723946e-22)
(0.69859555 -0.010509527 -5.0126102e-22)
(0.71095815 -0.0088818737 2.4587191e-22)
(0.50927432 -0.035974282 3.6471454e-21)
(0.49953041 -0.042960662 -1.8958293e-20)
(0.49627557 -0.04738346 -2.3083854e-21)
(0.49555593 -0.049736764 5.486952e-21)
(0.49416954 -0.051818029 3.0528041e-21)
(0.49269574 -0.053705395 -4.9902202e-23)
(0.49181229 -0.055187632 6.1896634e-21)
(0.49151451 -0.056265381 7.6251018e-21)
(0.49171167 -0.056990514 9.8580364e-21)
(0.49241072 -0.057395554 -1.1250043e-20)
(0.49363104 -0.057506281 -2.1579425e-20)
(0.49536778 -0.057348396 -3.9353471e-21)
(0.49760468 -0.056947108 1.5938146e-20)
(0.50032303 -0.056326986 1.280896e-20)
(0.50350167 -0.055511709 -5.9066946e-21)
(0.50711654 -0.054523821 1.3817032e-21)
(0.51114141 -0.053384758 -3.6600858e-21)
(0.51554877 -0.052114912 2.2443782e-21)
(0.52031031 -0.050733619 -2.9123026e-22)
(0.52539737 -0.049259136 -1.8654103e-21)
(0.53078129 -0.047708631 7.8265931e-21)
(0.53643368 -0.04609818 -2.9308896e-22)
(0.54232675 -0.044442759 4.1818238e-22)
(0.54843345 -0.042756232 -6.5646548e-22)
(0.55472767 -0.041051352 -4.3029408e-21)
(0.56118438 -0.039339757 4.2085187e-21)
(0.56777973 -0.037631977 1.9031222e-21)
(0.57449117 -0.035937454 -3.3081946e-21)