/*--------------------------------*- C++ -*----------------------------------*\
  =========                 |
  \\      /  F ield         | OpenFOAM: The Open Source CFD Toolbox
   \\    /   O peration     | Website:  https://openfoam.org
    \\  /    A nd           | Version:  6
     \\/     M anipulation  |
\*---------------------------------------------------------------------------*/
FoamFile
{
    version     2.0;
    format      ascii;
    class       volScalarField;
    location    "310";
    object      pMean;
}
// * * * * * * * * * * * * * * * * * * * * * * * * * * * * * * * * * * * * * //

dimensions      [0 2 -2 0 0 0 0];

internalField   nonuniform List<scalar> 
9200
(
-0.38826489
-0.37653044
-0.36606792
-0.35680968
-0.34775839
-0.33892149
-0.33038018
-0.32210023
-0.31401203
-0.30604237
-0.29811798
-0.29017038
-0.2821429
-0.2739979
-0.26572702
-0.25736865
-0.24900222
-0.24071792
-0.23352929
-0.23167289
-0.40644671
-0.39226227
-0.37986015
-0.36907716
-0.35864241
-0.34853195
-0.33881741
-0.32943422
-0.3202815
-0.31126086
-0.30228034
-0.29325999
-0.28413946
-0.27488367
-0.26548808
-0.25598223
-0.24640058
-0.23674697
-0.22769914
-0.22140712
-0.42499691
-0.40834739
-0.3940566
-0.38182111
-0.37005746
-0.35869233
-0.34777651
-0.3372082
-0.32685417
-0.31659573
-0.30633214
-0.29598599
-0.28550969
-0.2748882
-0.2641383
-0.25330397
-0.24242859
-0.23152467
-0.22099074
-0.21194093
-0.44346834
-0.42437946
-0.40826856
-0.39464216
-0.38156745
-0.3689059
-0.35668047
-0.34475271
-0.3329661
-0.32119792
-0.30936008
-0.29740166
-0.28531141
-0.27311503
-0.26086791
-0.24864473
-0.23651548
-0.22452089
-0.21292897
-0.20248411
-0.46121751
-0.43979871
-0.42198683
-0.40704581
-0.39266694
-0.37863654
-0.36495075
-0.35144638
-0.33796516
-0.32440807
-0.31072955
-0.29693296
-0.28306572
-0.26920879
-0.25546294
-0.24193446
-0.22871496
-0.2158627
-0.20356631
-0.1923375
-0.4774072
-0.45387313
-0.43453757
-0.41837012
-0.40267788
-0.38717328
-0.37183945
-0.35651526
-0.3410755
-0.32548134
-0.30976212
-0.29399928
-0.27831135
-0.26283554
-0.24770949
-0.2330565
-0.21897061
-0.20550561
-0.1927871
-0.18115544
-0.49102122
-0.46570482
-0.44508399
-0.42778897
-0.41076135
-0.39365686
-0.37647472
-0.35909741
-0.3414775
-0.32367521
-0.30582196
-0.28808981
-0.27066634
-0.25373125
-0.23743817
-0.22190405
-0.20720209
-0.19335999
-0.18044336
-0.16865541
-0.50088718
-0.47425434
-0.45265975
-0.43436019
-0.41598324
-0.39716323
-0.37795915
-0.35834972
-0.33841328
-0.31834303
-0.2983885
-0.27881069
-0.25985065
-0.24170675
-0.22452256
-0.20838504
-0.19332751
-0.17933768
-0.16642245
-0.15466929
-0.5056566
-0.47823821
-0.4559696
-0.43673927
-0.41696114
-0.39631133
-0.37496902
-0.35306587
-0.3308443
-0.30864448
-0.286826
-0.26571515
-0.24557517
-0.22659183
-0.20887275
-0.19245679
-0.17732725
-0.16342812
-0.15071171
-0.13916619
-0.50397715
-0.47623453
-0.45345969
-0.43325579
-0.41197147
-0.38940868
-0.36593148
-0.34186864
-0.31763843
-0.29370928
-0.27051227
-0.24839305
-0.22759441
-0.2082571
-0.1904331
-0.17410532
-0.15920801
-0.14564751
-0.13332882
-0.12215348
-0.27204816
-0.27655063
-0.27879137
-0.27930592
-0.27884119
-0.27757409
-0.27559366
-0.27299166
-0.26984192
-0.26620078
-0.26211402
-0.25762082
-0.2527559
-0.24755091
-0.24203569
-0.23624076
-0.23019869
-0.22393169
-0.21744012
-0.21081263
-0.27489078
-0.27896499
-0.28089241
-0.28118574
-0.28053685
-0.27911396
-0.27700407
-0.27429491
-0.27105651
-0.2673422
-0.26319522
-0.25865254
-0.25374686
-0.24850775
-0.24296236
-0.23714006
-0.23108087
-0.22480529
-0.21820581
-0.21125604
-0.28043002
-0.28366867
-0.28498649
-0.28484723
-0.28383748
-0.28210992
-0.27974768
-0.27683058
-0.2734213
-0.26956722
-0.2653065
-0.26067163
-0.25569134
-0.25039118
-0.24479327
-0.23892392
-0.23283439
-0.22654418
-0.21975245
-0.21219517
-0.28840854
-0.29045396
-0.29089098
-0.29011593
-0.28857
-0.28638613
-0.28364293
-0.28040957
-0.27673846
-0.27266872
-0.26823123
-0.26345206
-0.25835411
-0.25295699
-0.24727583
-0.24133152
-0.23518683
-0.22886618
-0.22182292
-0.21341754
-0.29850235
-0.29906014
-0.29837853
-0.2967773
-0.29452453
-0.29173227
-0.28847533
-0.28481071
-0.28077876
-0.27640882
-0.27172302
-0.26673873
-0.26147102
-0.25593226
-0.25012932
-0.24407451
-0.23783809
-0.23145791
-0.22413162
-0.21470254
-0.31037557
-0.30921685
-0.30721554
-0.30461484
-0.30149379
-0.29794519
-0.29404223
-0.28983002
-0.28533626
-0.28057804
-0.27556619
-0.27030839
-0.26481051
-0.25907629
-0.25310328
-0.24689243
-0.24051364
-0.23402418
-0.22639632
-0.21584084
-0.32372979
-0.32068274
-0.31719678
-0.31344528
-0.30931079
-0.30487034
-0.30019943
-0.29533096
-0.29027728
-0.28504249
-0.27962545
-0.27402215
-0.26822756
-0.26223566
-0.25603491
-0.24961462
-0.24303743
-0.23638317
-0.22846273
-0.2167921
-0.3383334
-0.33326933
-0.32816853
-0.323144
-0.31787897
-0.31243787
-0.30689884
-0.30128192
-0.29558423
-0.28979495
-0.28389818
-0.27787531
-0.27170751
-0.2653766
-0.2588615
-0.25214295
-0.2452812
-0.23840208
-0.23027366
-0.21771763
-0.3540209
-0.34683253
-0.34000922
-0.33361362
-0.32712346
-0.32058942
-0.31409433
-0.30764499
-0.30122053
-0.29479221
-0.28832602
-0.28178482
-0.27513076
-0.26832563
-0.26132635
-0.25408697
-0.24663315
-0.23907369
-0.23017489
-0.21646612
-0.37068369
-0.36125374
-0.3525948
-0.34472402
-0.33690123
-0.32916321
-0.32159751
-0.31419558
-0.30691637
-0.29971192
-0.29253009
-0.28531737
-0.27802188
-0.27059345
-0.26297844
-0.25511545
-0.2469507
-0.23828325
-0.2274882
-0.2115659
-0.20330648
-0.19395384
-0.1846192
-0.17537454
-0.16616355
-0.15702715
-0.14802058
-0.13917971
-0.13053344
-0.12210988
-0.11393422
-0.10602777
-0.098408494
-0.091091362
-0.084088433
-0.077408921
-0.071059337
-0.065043628
-0.059363308
-0.054017594
-0.049003559
-0.044316292
-0.039949076
-0.035893569
-0.032140004
-0.028677382
-0.025493679
-0.022576047
-0.019911017
-0.017484688
-0.01528291
-0.013291463
-0.011496211
-0.0098832546
-0.0084390645
-0.007150606
-0.0060054598
-0.0049919155
-0.0040991484
-0.003317127
-0.0026374792
-0.0020513642
-0.0015571467
-0.0011378318
-0.00083236093
-0.0005242341
-0.00057746982
1.9751379e-05
-0.0017750959
0.0026471987
-0.20447541
-0.19470525
-0.18525082
-0.17601481
-0.16677805
-0.15760283
-0.14856394
-0.13969345
-0.13101752
-0.12256485
-0.11436102
-0.10642721
-0.098781355
-0.091438494
-0.084410748
-0.077707381
-0.071334952
-0.065297455
-0.059596436
-0.054231138
-0.049198645
-0.044494051
-0.040110631
-0.036040028
-0.032272449
-0.028796866
-0.025601216
-0.022672611
-0.019997535
-0.017562038
-0.01535192
-0.013352908
-0.011550814
-0.0099316853
-0.0084819412
-0.0071884954
-0.0060388791
-0.0050213334
-0.004124987
-0.0033397631
-0.0026572446
-0.0020685488
-0.0015719797
-0.0011505409
-0.00084290095
-0.00053316673
-0.00058267761
1.2550058e-05
-0.0017619424
0.002618208
-0.20688413
-0.19622793
-0.18653734
-0.17736089
-0.16808729
-0.15883598
-0.1497352
-0.14080732
-0.13207131
-0.12355815
-0.11529488
-0.10730255
-0.099599198
-0.09220022
-0.085118017
-0.07836206
-0.071939098
-0.065853286
-0.060106296
-0.054697461
-0.049623923
-0.044880803
-0.040461375
-0.036357257
-0.032558608
-0.029054333
-0.02583229
-0.022879493
-0.020182323
-0.017726717
-0.015498357
-0.01348285
-0.011665885
-0.010033387
-0.0085716547
-0.0072674843
-0.006108292
-0.0050822085
-0.0041782562
-0.0033862553
-0.0026976887
-0.0021035783
-0.0016021035
-0.0011762432
-0.00086415032
-0.00055104998
-0.00059314207
-1.6232963e-06
-0.0017360169
0.0025608179
-0.21031701
-0.19824437
-0.1882114
-0.17922476
-0.16994735
-0.16060116
-0.15142888
-0.14243562
-0.13362426
-0.12503108
-0.11668712
-0.10861361
-0.10082887
-0.093349194
-0.086187723
-0.079354458
-0.072856602
-0.0666987
-0.060882736
-0.055408277
-0.050272635
-0.045471036
-0.040996809
-0.036841578
-0.032995464
-0.029447301
-0.026184843
-0.023194979
-0.020463942
-0.017977505
-0.015721181
-0.013680392
-0.011840645
-0.010187679
-0.0087076073
-0.0073870445
-0.0062132307
-0.0051741255
-0.0042585867
-0.0034562754
-0.0027585201
-0.002156194
-0.0016472882
-0.0012147356
-0.00089592927
-0.00057772496
-0.00060875966
-2.2581073e-05
-0.0016978615
0.0024762413
-0.21448586
-0.20043767
-0.18996305
-0.18136917
-0.17217584
-0.16273896
-0.15350649
-0.14446394
-0.13558218
-0.12690472
-0.11847152
-0.11030516
-0.1024245
-0.094847346
-0.087588321
-0.080658508
-0.074065977
-0.067816021
-0.061911239
-0.05635168
-0.05113502
-0.04625675
-0.04171037
-0.037487593
-0.033578566
-0.029972081
-0.026655804
-0.023616494
-0.020840217
-0.018312555
-0.016018806
-0.013944167
-0.012073906
-0.010393521
-0.0088888842
-0.0075463695
-0.0063529821
-0.0052964529
-0.0043654194
-0.0035493285
-0.0028393006
-0.0022260091
-0.0017071925
-0.0012657184
-0.00093797763
-0.00061295735
-0.00062940066
-5.0020031e-05
-0.0016483604
0.0023663629
-0.2189915
-0.20249074
-0.19149172
-0.18352787
-0.17456896
-0.16507825
-0.15581104
-0.14675557
-0.13783175
-0.12908459
-0.12056815
-0.11230986
-0.10432976
-0.09664771
-0.08928068
-0.082241652
-0.075540183
-0.069182817
-0.063173201
-0.057512237
-0.052198266
-0.047227288
-0.04259317
-0.038287871
-0.03430167
-0.030623406
-0.027240707
-0.02414023
-0.021307885
-0.018729052
-0.016388796
-0.014272052
-0.012363814
-0.010649291
-0.0091140608
-0.0077442067
-0.0065264442
-0.0054482217
-0.0044979027
-0.0036646672
-0.0029393761
-0.0023124524
-0.0017813191
-0.0013287613
-0.00098992887
-0.00065642594
-0.00065489083
-8.3555875e-05
-0.0015886512
0.0022336338
-0.22340426
-0.20420098
-0.1925693
-0.18540378
-0.17690477
-0.16747198
-0.1582094
-0.14918153
-0.14026141
-0.13147831
-0.12289878
-0.11456051
-0.10648724
-0.098701389
-0.091223066
-0.084068168
-0.077248587
-0.070772769
-0.064645964
-0.058870395
-0.053445466
-0.048368001
-0.043632492
-0.039231348
-0.035155141
-0.031392868
-0.027932208
-0.024759767
-0.021861328
-0.019222083
-0.016826851
-0.014660291
-0.012707087
-0.010952123
-0.0093806424
-0.0079783878
-0.0067317374
-0.005627807
-0.0046546368
-0.0038010905
-0.0030577202
-0.0024146519
-0.0018689313
-0.001403249
-0.0010512782
-0.00070771585
-0.00068500843
-0.0001227754
-0.0015200401
0.0020809277
-0.22744466
-0.20594966
-0.19341557
-0.18680874
-0.17896444
-0.16982454
-0.16064902
-0.15167678
-0.14280017
-0.13402108
-0.12540522
-0.11700321
-0.10884693
-0.10096262
-0.093373976
-0.086100589
-0.079157521
-0.072555774
-0.066302729
-0.060402389
-0.054855608
-0.049660364
-0.044812045
-0.040303725
-0.036126445
-0.032269503
-0.028720723
-0.025466738
-0.022493252
-0.019785291
-0.017327443
-0.01510408
-0.013099561
-0.011298417
-0.0096855228
-0.0082462427
-0.0069665755
-0.0058332611
-0.0048339717
-0.0039572099
-0.0031931738
-0.0025316495
-0.0019692453
-0.001488552
-0.0011215318
-0.00076644576
-0.00071958713
-0.00016733129
-0.0014439745
0.0019114964
-0.22877376
-0.20794499
-0.194694
-0.1876705
-0.18031321
-0.17175469
-0.16285478
-0.15400803
-0.14523214
-0.13652193
-0.12792634
-0.119504
-0.11129827
-0.10334159
-0.095661876
-0.088283096
-0.081224376
-0.074500161
-0.068120742
-0.062092599
-0.056418675
-0.051098663
-0.046129329
-0.041504832
-0.03721703
-0.033255802
-0.029609356
-0.02626453
-0.023207084
-0.020421979
-0.017893635
-0.015606179
-0.01354366
-0.011690256
-0.010030455
-0.0085492183
-0.0072321294
-0.0060655122
-0.0050366265
-0.0041335673
-0.0033461303
-0.0026637139
-0.0020824272
-0.0015847458
-0.0012007094
-0.00083252653
-0.00075871299
-0.00021669328
-0.0013623217
0.0017295789
-0.21907114
-0.20727793
-0.19591686
-0.18748016
-0.18006359
-0.17229166
-0.16400581
-0.15552993
-0.14704279
-0.13857207
-0.13014767
-0.12182853
-0.11367087
-0.10571789
-0.098005294
-0.090564103
-0.083420077
-0.076593468
-0.070099504
-0.063948869
-0.058148051
-0.052699687
-0.047602944
-0.0428539
-0.038445913
-0.034369992
-0.030615155
-0.027168778
-0.024016928
-0.021144683
-0.018536422
-0.016176104
-0.014047511
-0.012134484
-0.010421116
-0.0088919372
-0.0075320817
-0.0063274108
-0.0052647218
-0.0043316471
-0.0035175253
-0.0028113093
-0.0022085495
-0.0016915579
-0.0012883253
-0.00090512695
-0.00080192191
-0.00026890768
-0.001277524
0.0015408041
-0.19720418
-0.2012408
-0.19553216
-0.18632548
-0.17849691
-0.17114484
-0.16331395
-0.15514619
-0.14690549
-0.13865628
-0.13042079
-0.12225368
-0.11421514
-0.106353
-0.098706377
-0.091309449
-0.084191157
-0.077374733
-0.070878091
-0.064714324
-0.058892067
-0.053415848
-0.048286481
-0.043501458
-0.039055346
-0.034940164
-0.031145767
-0.02766021
-0.024470102
-0.021560932
-0.018917389
-0.016523645
-0.014363618
-0.012421214
-0.010680541
-0.0091260939
-0.0077429361
-0.006516828
-0.0054344386
-0.0044832571
-0.0036524282
-0.002930775
-0.0023133626
-0.0017829312
-0.0013646352
-0.00097114627
-0.00083927696
-0.00032078787
-0.0011895995
0.0013534174
-0.18639438
-0.19153928
-0.18766185
-0.17869109
-0.17121404
-0.16464888
-0.15765029
-0.15022598
-0.14266791
-0.13505234
-0.12739236
-0.11973864
-0.11215402
-0.10469027
-0.097390399
-0.090292712
-0.083430493
-0.076831277
-0.070517099
-0.064504952
-0.058807127
-0.053431542
-0.048382125
-0.043659214
-0.039259949
-0.03517867
-0.031407306
-0.027935754
-0.024752244
-0.021843686
-0.019196001
-0.016794418
-0.014623758
-0.012668683
-0.010913932
-0.0093445149
-0.0079459079
-0.0067041954
-0.0056062824
-0.0046398407
-0.0037940622
-0.0030579367
-0.0024260367
-0.0018821594
-0.0014475117
-0.0010442043
-0.00087877485
-0.00038156537
-0.0010890193
0.001150545
-0.17733591
-0.17997293
-0.17732581
-0.17010692
-0.1635193
-0.15768082
-0.15147744
-0.1448097
-0.13793951
-0.13096252
-0.12389418
-0.11677926
-0.10967948
-0.10264864
-0.095732036
-0.08897061
-0.082400801
-0.076053609
-0.069954611
-0.064124325
-0.058578486
-0.053328322
-0.048380896
-0.043739477
-0.03940392
-0.03537106
-0.031635092
-0.028187955
-0.025019708
-0.02211888
-0.019472812
-0.017067972
-0.014890244
-0.012925201
-0.011158342
-0.0095753125
-0.0081621043
-0.0069052141
-0.0057918564
-0.0048099486
-0.0039487702
-0.0031975305
-0.0025502754
-0.0019920079
-0.0015395583
-0.0011255439
-0.00092305425
-0.00044920999
-0.00097910036
0.00092757827
-0.16733661
-0.16748167
-0.16532271
-0.16019268
-0.1548631
-0.14979933
-0.14441444
-0.13858269
-0.13247785
-0.12620078
-0.11978238
-0.11326558
-0.10670889
-0.10016684
-0.09368675
-0.087311762
-0.081081028
-0.075028738
-0.069183893
-0.063570518
-0.058207868
-0.053110627
-0.048289194
-0.043750005
-0.039495895
-0.035526461
-0.031838438
-0.028426079
-0.025281528
-0.022395177
-0.019756016
-0.017351958
-0.015170143
-0.013197219
-0.011419599
-0.0098236928
-0.0083961204
-0.0071238866
-0.0059945949
-0.0049964723
-0.0041189354
-0.0033514479
-0.0026875461
-0.002113449
-0.0016415567
-0.0012150584
-0.00097315042
-0.00052078316
-0.00086751196
0.00069476471
-0.15645992
-0.15484073
-0.15275583
-0.14934955
-0.14533413
-0.14110482
-0.13654305
-0.13157751
-0.12628992
-0.12076333
-0.11504381
-0.1091768
-0.10321668
-0.097216914
-0.09122588
-0.085288152
-0.079444826
-0.073732691
-0.068183788
-0.062825425
-0.057680276
-0.052766498
-0.048097924
-0.043684335
-0.039531757
-0.035642801
-0.032017013
-0.028651234
-0.025539966
-0.022675731
-0.020049422
-0.017650632
-0.015467971
-0.013489361
-0.011702304
-0.010094129
-0.0086522181
-0.0073641981
-0.0062181581
-0.0052027116
-0.0043074771
-0.0035222074
-0.0028399806
-0.0022481765
-0.0017549224
-0.0013135141
-0.0010303459
-0.0005953667
-0.00076019072
0.00046024836
-0.14440751
-0.14208922
-0.14016891
-0.13804769
-0.13521995
-0.13185247
-0.1281019
-0.1239814
-0.11951324
-0.11475338
-0.10975504
-0.10456544
-0.099234554
-0.09381346
-0.088350375
-0.082890231
-0.077474942
-0.072142888
-0.066928369
-0.061861388
-0.056967607
-0.052268367
-0.04778078
-0.043517917
-0.039489035
-0.035699863
-0.032152909
-0.028847789
-0.025781576
-0.022949141
-0.020343501
-0.017956152
-0.015777386
-0.013796594
-0.01200255
-0.010383666
-0.0089282342
-0.0076246337
-0.0064615497
-0.0054280733
-0.0045141052
-0.0037097297
-0.0030076491
-0.0023963102
-0.0018798912
-0.0014209435
-0.0010953964
-0.00067222778
-0.00066300968
0.00023262214
-0.13149912
-0.12937282
-0.12784152
-0.12664634
-0.12479788
-0.12226226
-0.11929378
-0.11597081
-0.11229151
-0.10828599
-0.10400602
-0.099500064
-0.094812862
-0.089990637
-0.0850802
-0.080125981
-0.075169661
-0.07025006
-0.065402715
-0.060659498
-0.056048394
-0.051593401
-0.04731453
-0.043227878
-0.039345786
-0.035677041
-0.032227127
-0.028998513
-0.025990956
-0.023201831
-0.020626447
-0.018258382
-0.016089794
-0.014111728
-0.012314402
-0.010687476
-0.0092203029
-0.007902148
-0.0067224142
-0.0056707706
-0.0047374937
-0.003913049
-0.0031898718
-0.002557357
-0.0020161999
-0.0015370416
-0.0011688021
-0.00075068253
-0.0005818291
2.1087054e-05
-0.11844196
-0.11693528
-0.11592396
-0.11540082
-0.11432364
-0.11254261
-0.11030439
-0.10771613
-0.10477274
-0.10148696
-0.097902461
-0.094065387
-0.0900171
-0.085798298
-0.081451272
-0.077018741
-0.072541433
-0.068057615
-0.063602972
-0.059210262
-0.05490896
-0.050725028
-0.046680801
-0.042794966
-0.039082617
-0.035555381
-0.032221588
-0.029086507
-0.026152593
-0.023419779
-0.02088577
-0.018546349
-0.016395683
-0.01442662
-0.012630977
-0.010999815
-0.0095236909
-0.0081928926
-0.0069976639
-0.0059283596
-0.0049757337
-0.004130691
-0.0033855294
-0.0027304642
-0.0021632776
-0.0016613389
-0.0012508452
-0.00083032072
-0.00052173809
-0.00016562396
-0.10576747
-0.10495293
-0.10448117
-0.10446854
-0.10399492
-0.10286837
-0.10128912
-0.099364295
-0.097091938
-0.094475387
-0.091548384
-0.088351499
-0.084921519
-0.081294654
-0.077508579
-0.073601861
-0.069612938
-0.065578763
-0.061534279
-0.057512157
-0.053542459
-0.049652312
-0.045865692
-0.042203295
-0.038682503
-0.035317417
-0.032118953
-0.029094997
-0.026250603
-0.023588225
-0.021107974
-0.018807895
-0.016684248
-0.014731791
-0.012944063
-0.011313652
-0.0098324502
-0.0084918927
-0.0072831853
-0.0061974764
-0.0052261047
-0.0043604797
-0.0035929039
-0.0029142975
-0.0023201507
-0.0017931499
-0.0013414943
-0.00091104674
-0.00048630562
-0.0003204317
-0.093753041
-0.093543018
-0.093557984
-0.093948066
-0.093950318
-0.093373936
-0.092370811
-0.091033487
-0.089362016
-0.087354928
-0.08503673
-0.082440778
-0.079598468
-0.076540866
-0.073301084
-0.069913526
-0.066412824
-0.062833391
-0.059208636
-0.05557033
-0.051948259
-0.0483699
-0.044860125
-0.041440993
-0.038131614
-0.034948098
-0.031903572
-0.029008259
-0.026269601
-0.02369244
-0.021279222
-0.019030233
-0.016943846
-0.015016786
-0.013244389
-0.011620864
-0.010139544
-0.0087931207
-0.0075738711
-0.0064738399
-0.0054850562
-0.0045995059
-0.0038096428
-0.0031070022
-0.0024854084
-0.0019315338
-0.0014403379
-0.00099299566
-0.00047702476
-0.00043895965
-0.082533996
-0.082794727
-0.083206804
-0.083912518
-0.084288608
-0.084162926
-0.08364886
-0.082820583
-0.081677473
-0.080215003
-0.078449876
-0.076407903
-0.074114574
-0.071595593
-0.068878916
-0.065994511
-0.062973125
-0.059845671
-0.056642984
-0.053395167
-0.050130985
-0.046877489
-0.043659713
-0.040500396
-0.03741977
-0.034435429
-0.031562261
-0.028812455
-0.026195557
-0.023718579
-0.02138615
-0.019200702
-0.01716268
-0.015270771
-0.013522139
-0.01191267
-0.010437209
-0.0090897901
-0.0078638531
-0.0067524314
-0.0057483436
-0.0048442265
-0.0040328293
-0.0033062479
-0.0026572311
-0.0020752864
-0.0015465564
-0.0010763864
-0.00049302769
-0.00052029161
-0.072167659
-0.072768868
-0.073479539
-0.074421363
-0.075083959
-0.075317375
-0.075206453
-0.074808388
-0.074120256
-0.073134962
-0.071862711
-0.070322217
-0.068532954
-0.066515197
-0.064291637
-0.061887331
-0.059328795
-0.056643256
-0.053858282
-0.051001468
-0.048099841
-0.04517934
-0.042264461
-0.039377947
-0.036540531
-0.033770723
-0.031084678
-0.028496127
-0.026016361
-0.023654279
-0.021416474
-0.019307368
-0.01732937
-0.015483071
-0.013767446
-0.01218007
-0.010717338
-0.009374683
-0.0081467782
-0.0070277225
-0.0060112121
-0.0050906093
-0.0042590946
-0.003509307
-0.0028334457
-0.0022229415
-0.001658918
-0.001161344
-0.00053116231
-0.00056721956
-0.062663794
-0.063496618
-0.064415408
-0.06552069
-0.066392828
-0.066902646
-0.067113723
-0.067069186
-0.066763493
-0.066187266
-0.065345322
-0.064250079
-0.062915293
-0.06135595
-0.059589562
-0.057636205
-0.055517818
-0.053257614
-0.050879639
-0.048408416
-0.04586855
-0.04328422
-0.040678744
-0.038074231
-0.035491292
-0.032948777
-0.030463581
-0.028050507
-0.02572219
-0.023489074
-0.02135944
-0.01933948
-0.017433411
-0.015643616
-0.013970813
-0.012414239
-0.01097184
-0.009640474
-0.0084160932
-0.007293921
-0.0062686051
-0.0053343045
-0.0044847549
-0.003713156
-0.0030115995
-0.0023727844
-0.0017758074
-0.0012477375
-0.00058646429
-0.00058582426
-0.054005879
-0.054984745
-0.056035723
-0.057241188
-0.058255864
-0.058969031
-0.059428104
-0.059665037
-0.059672115
-0.05943815
-0.058963595
-0.058255521
-0.057322566
-0.05617481
-0.054824864
-0.053287964
-0.05158145
-0.049724292
-0.047736739
-0.045639957
-0.043455651
-0.041205663
-0.038911552
-0.036594205
-0.034273519
-0.031968111
-0.029695075
-0.027469795
-0.025305804
-0.023214706
-0.021206142
-0.019287809
-0.017465518
-0.015743283
-0.014123453
-0.012606854
-0.011192951
-0.0098800189
-0.008665309
-0.007545208
-0.0065153728
-0.0055708233
-0.0047059606
-0.003914589
-0.0031890466
-0.002522882
-0.0018952892
-0.0013350771
-0.00065296048
-0.00058439059
-0.046161627
-0.047221006
-0.048343746
-0.049597316
-0.050698171
-0.051551935
-0.052193674
-0.052646658
-0.052901718
-0.05294649
-0.052778077
-0.05239921
-0.051814186
-0.051028769
-0.050051132
-0.048892007
-0.047564321
-0.04608283
-0.044463854
-0.042724987
-0.040884756
-0.038962256
-0.036976794
-0.034947516
-0.032893065
-0.03083128
-0.028778923
-0.02675145
-0.024762828
-0.0228254
-0.020949801
-0.019144915
-0.017417885
-0.015774153
-0.014217537
-0.012750339
-0.011373469
-0.010086579
-0.0088882124
-0.0077759343
-0.006746451
-0.0057956975
-0.0049188335
-0.0041103297
-0.0033630372
-0.0026711318
-0.0020152099
-0.0014225001
-0.0007246369
-0.00057186449
-0.039088354
-0.040179366
-0.041327745
-0.042588766
-0.043730305
-0.044672485
-0.045441033
-0.046052615
-0.046497333
-0.046762324
-0.046842313
-0.046736699
-0.046446298
-0.045973277
-0.045321984
-0.044499147
-0.043513639
-0.042376225
-0.041099377
-0.039697061
-0.038184469
-0.036577707
-0.034893475
-0.033148756
-0.031360479
-0.029545212
-0.027718885
-0.025896533
-0.024092083
-0.022318179
-0.020586046
-0.018905407
-0.017284431
-0.015729734
-0.014246401
-0.012838052
-0.011506928
-0.010253987
-0.0090790217
-0.0079807671
-0.0069569973
-0.0060046028
-0.0051195771
-0.0042971252
-0.0035307998
-0.0028153238
-0.002133323
-0.0015088388
-0.00079633465
-0.0005562348
-0.032737491
-0.033824901
-0.034965092
-0.03620335
-0.037350344
-0.038339007
-0.039188116
-0.03990942
-0.040492924
-0.04092587
-0.041201492
-0.041316805
-0.041270003
-0.041060432
-0.040689311
-0.040159976
-0.039477746
-0.038649772
-0.037684931
-0.036593686
-0.035387893
-0.034080564
-0.032685603
-0.031217527
-0.029691189
-0.028121479
-0.026523052
-0.024910066
-0.023295954
-0.021693216
-0.020113257
-0.018566256
-0.017061074
-0.015605206
-0.01420476
-0.012864476
-0.011587769
-0.010376792
-0.0092325144
-0.0081548024
-0.0071424921
-0.0061934505
-0.0053045587
-0.0044718194
-0.0036896099
-0.0029532102
-0.0022474172
-0.0015927431
-0.00086434018
-0.00054328378
-0.027057984
-0.028117504
-0.02922584
-0.030420066
-0.031546427
-0.032549083
-0.033441695
-0.034232436
-0.034911695
-0.035467308
-0.035891763
-0.036180531
-0.036329985
-0.036337402
-0.036201598
-0.035923178
-0.035504496
-0.034949579
-0.034264092
-0.033455268
-0.03253179
-0.03150362
-0.030381805
-0.029178253
-0.027905494
-0.026576435
-0.025204097
-0.023801369
-0.022380771
-0.020954247
-0.019532972
-0.018127191
-0.016746102
-0.015397755
-0.014089001
-0.012825465
-0.011611543
-0.010450432
-0.0093441696
-0.0082936824
-0.0072988339
-0.0063584654
-0.0054703746
-0.0046314106
-0.0038368462
-0.0030825735
-0.0023554203
-0.0016728121
-0.00092653181
-0.00053603945
-0.021998579
-0.023014534
-0.024075521
-0.025211836
-0.026299279
-0.027291774
-0.02819924
-0.029027283
-0.029767015
-0.030407212
-0.030940205
-0.03136061
-0.031663677
-0.031845304
-0.031902583
-0.031834058
-0.03163973
-0.03132106
-0.030880974
-0.03032386
-0.029655511
-0.028883026
-0.028014674
-0.027059738
-0.026028324
-0.024931158
-0.023779373
-0.022584277
-0.021357135
-0.020108959
-0.018850313
-0.017591138
-0.016340602
-0.01510698
-0.013897561
-0.012718586
-0.011575209
-0.010471484
-0.0094103739
-0.0083937613
-0.0074224715
-0.0064962891
-0.0056139299
-0.0047731162
-0.0039700476
-0.0032012951
-0.0024554659
-0.0017477012
-0.00098210666
-0.00053500655
-0.017509694
-0.018473025
-0.019477585
-0.02054802
-0.021584701
-0.022549983
-0.023451038
-0.024291651
-0.025063854
-0.025757576
-0.026365415
-0.026881669
-0.027301032
-0.027618607
-0.027830371
-0.027933417
-0.027926001
-0.027807578
-0.027578855
-0.027241827
-0.026799776
-0.026257225
-0.02561987
-0.024894474
-0.024088737
-0.023211144
-0.022270788
-0.021277188
-0.02024009
-0.019169272
-0.018074357
-0.016964638
-0.015848913
-0.01473535
-0.013631365
-0.012543531
-0.011477509
-0.010437998
-0.0094287094
-0.0084523473
-0.0075106009
-0.0066041376
-0.0057325622
-0.004894471
-0.0040869909
-0.003307431
-0.0025459289
-0.0018161906
-0.0010310679
-0.00053896273
-0.013544487
-0.01445112
-0.015395106
-0.016396317
-0.017375581
-0.018302491
-0.019182187
-0.020017151
-0.020800421
-0.021523178
-0.022178563
-0.022760945
-0.023264889
-0.023685168
-0.024017149
-0.024257008
-0.024401798
-0.024449509
-0.024399142
-0.02425078
-0.024005617
-0.023665968
-0.023235243
-0.022717899
-0.02211936
-0.021445914
-0.020704587
-0.019903003
-0.019049218
-0.01815156
-0.017218452
-0.016258248
-0.015279074
-0.014288682
-0.013294314
-0.012302591
-0.011319419
-0.01034991
-0.0093983247
-0.0084680262
-0.0075614413
-0.0066800298
-0.0058242271
-0.0049934759
-0.0041858072
-0.0033993073
-0.0026254518
-0.0018772258
-0.0010737153
-0.0005459323
-0.01006034
-0.0109098
-0.011792693
-0.012724803
-0.01364401
-0.014526096
-0.01537467
-0.01619127
-0.016969937
-0.01770311
-0.01838463
-0.019009191
-0.019571528
-0.02006643
-0.020489043
-0.020835062
-0.0211008
-0.021283256
-0.021380207
-0.021390284
-0.021313035
-0.021148965
-0.020899544
-0.020567206
-0.020155315
-0.019668109
-0.01911062
-0.018488572
-0.017808267
-0.017076452
-0.016300172
-0.015486626
-0.014643018
-0.013776418
-0.012893622
-0.01200103
-0.011104535
-0.010209426
-0.0093203013
-0.0084410009
-0.0075745403
-0.0067230551
-0.0058877264
-0.0050687883
-0.0042651331
-0.0034756383
-0.0026929868
-0.0019299568
-0.0011103191
-0.00055397553
-0.0070188219
-0.0078133183
-0.0086373458
-0.0095031575
-0.010362856
-0.011197488
-0.012009482
-0.01279967
-0.013563037
-0.014293215
-0.014984809
-0.015632982
-0.016232828
-0.016779383
-0.017267856
-0.017693788
-0.018053121
-0.018342264
-0.018558179
-0.018698472
-0.01876146
-0.018746234
-0.018652693
-0.018481578
-0.018234468
-0.017913768
-0.017522671
-0.017065097
-0.016545619
-0.015969367
-0.015341919
-0.01466918
-0.013957256
-0.013212329
-0.012440521
-0.011647777
-0.010839741
-0.01002165
-0.0091982324
-0.0083736145
-0.0075512367
-0.0067337755
-0.0059230498
-0.0051200066
-0.0043243374
-0.0035356983
-0.0027478903
-0.0019738073
-0.0011410365
-0.00056162239
-0.0043871565
-0.0051304929
-0.0058996023
-0.006703628
-0.0075065274
-0.0082938119
-0.0090669791
-0.0098263114
-0.010567639
-0.011285685
-0.011975808
-0.012633701
-0.01325492
-0.013834879
-0.014369037
-0.014853013
-0.015282649
-0.015654069
-0.015963763
-0.016208667
-0.016386237
-0.016494517
-0.016532197
-0.016498656
-0.016393996
-0.016219053
-0.015975396
-0.015665305
-0.015291732
-0.01485824
-0.014368934
-0.013828372
-0.013241462
-0.012613356
-0.011949338
-0.011254709
-0.010534667
-0.0097941954
-0.0090379559
-0.0082701787
-0.0074945625
-0.0067141795
-0.0059313646
-0.00514768
-0.0043635381
-0.0035793351
-0.0027899176
-0.0020084684
-0.0011659196
-0.00056793777
-0.0021395612
-0.0028371682
-0.0035569585
-0.0043054267
-0.0050563435
-0.0057989493
-0.0065339921
-0.0072613112
-0.0079774669
-0.0086781385
-0.0093593858
-0.010017432
-0.01064832
-0.011247909
-0.011812003
-0.012336444
-0.01281716
-0.013250214
-0.013631878
-0.013958704
-0.014227593
-0.014435866
-0.014581328
-0.014662321
-0.014677776
-0.014627246
-0.014510932
-0.014329688
-0.014085016
-0.013779038
-0.013414463
-0.012994524
-0.012522915
-0.012003703
-0.011441238
-0.010840052
-0.010204753
-0.0095399165
-0.0088499718
-0.008139091
-0.0074110767
-0.0066692532
-0.0059163437
-0.0051544159
-0.0043845095
-0.0036076979
-0.0028197953
-0.0020343419
-0.0011853296
-0.00057261063
-0.00025115799
-0.00090854938
-0.0015849323
-0.002284418
-0.0029888439
-0.0036905609
-0.0043897121
-0.0050857656
-0.0057758883
-0.0064565722
-0.0071244945
-0.0077763675
-0.0084087029
-0.0090178057
-0.0095998641
-0.010151013
-0.010667372
-0.011145089
-0.011580393
-0.01196966
-0.012309474
-0.012596693
-0.012828509
-0.013002514
-0.013116752
-0.013169772
-0.013160667
-0.013089107
-0.012955354
-0.012760267
-0.012505292
-0.01219244
-0.011824238
-0.01140368
-0.010934156
-0.010419374
-0.0098632654
-0.0092698885
-0.0086433198
-0.007987542
-0.007306328
-0.0066031238
-0.0058809159
-0.0051421642
-0.0043884315
-0.0036213855
-0.0028377161
-0.0020513181
-0.001199028
-0.00057519555
0.0012747589
0.00065011139
9.4393153e-06
-0.00064961803
-0.001315304
-0.0019824096
-0.0026505827
-0.0033189933
-0.0039852944
-0.0046466367
-0.0053002084
-0.0059431409
-0.0065723579
-0.0071845704
-0.0077763333
-0.0083440877
-0.0088841894
-0.0093929425
-0.0098666428
-0.010301629
-0.010694337
-0.011041357
-0.011339494
-0.011585826
-0.011777767
-0.011913124
-0.011990144
-0.012007567
-0.011964657
-0.011861228
-0.011697662
-0.011474903
-0.011194447
-0.010858313
-0.010468995
-0.010029404
-0.0095427921
-0.0090126698
-0.0084427051
-0.0078366173
-0.0071980601
-0.0065305021
-0.005837089
-0.0051205659
-0.0043829122
-0.0036262902
-0.0028481527
-0.0020626974
-0.0012093388
-0.00057688335
0.0024803131
0.0018826222
0.0012711993
0.00064530124
1.1686142e-05
-0.00062638584
-0.0012681805
-0.0019126193
-0.0025577231
-0.003201156
-0.0038405114
-0.0044732591
-0.0050966619
-0.0057077725
-0.0063034648
-0.0068804601
-0.0074353482
-0.0079646124
-0.0084646644
-0.008931884