/*--------------------------------*- C++ -*----------------------------------*\
  =========                 |
  \\      /  F ield         | OpenFOAM: The Open Source CFD Toolbox
   \\    /   O peration     | Website:  https://openfoam.org
    \\  /    A nd           | Version:  6
     \\/     M anipulation  |
\*---------------------------------------------------------------------------*/
FoamFile
{
    version     2.0;
    format      ascii;
    class       volSymmTensorField;
    location    "310";
    object      UPrime2Mean;
}
// * * * * * * * * * * * * * * * * * * * * * * * * * * * * * * * * * * * * * //

dimensions      [0 2 -2 0 0 0 0];

internalField   nonuniform List<symmTensor> 
9200
(
(6.4047002e-05 -4.9713681e-05 2.3168276e-22 3.9894081e-05 -1.2381473e-22 3.7529372e-39)
(0.00039539553 -0.00031648322 5.957311e-22 0.00025429638 -4.4453485e-22 4.0831023e-39)
(0.00080071121 -0.00062058959 7.1200502e-23 0.00048383722 -5.4002091e-23 2.2384464e-39)
(0.0012643591 -0.0009148373 -8.9996576e-22 0.00066949824 6.3221942e-22 4.4635506e-39)
(0.0017231641 -0.0011771363 4.4011791e-23 0.00081828387 -3.6103731e-23 6.5431319e-40)
(0.0021454922 -0.0013956625 3.8094925e-22 0.00092996047 -2.5222235e-22 1.0351108e-40)
(0.0025092283 -0.0015661448 -8.3237979e-23 0.0010082779 5.7186518e-23 2.9650582e-40)
(0.0027963385 -0.0016886714 7.5611883e-23 0.0010595885 -5.0514904e-23 1.9969492e-40)
(0.0029940985 -0.0017654415 3.6997602e-22 0.0010900117 -2.2384956e-22 5.6987977e-40)
(0.0030955947 -0.0017997704 2.884781e-23 0.0011047596 -1.7538419e-23 1.6269053e-42)
(0.0030998231 -0.0017956246 -4.0099203e-22 0.0011081424 2.4536473e-22 3.0636667e-40)
(0.0030116897 -0.0017573343 3.3670186e-22 0.0011036172 -2.1353686e-22 4.2428171e-41)
(0.0028416572 -0.0016894098 -6.0135727e-22 0.001093865 4.0276324e-22 6.5641031e-40)
(0.0026048886 -0.0015964307 -3.0607349e-22 0.0010808983 2.0896603e-22 4.2514755e-41)
(0.002319911 -0.0014829743 7.9583062e-23 0.0010661794 -5.8537464e-23 5.3946178e-42)
(0.0020069158 -0.0013535521 -3.0112905e-22 0.0010507354 2.3359116e-22 5.7130968e-41)
(0.0016858286 -0.0012125525 2.65582e-22 0.0010353215 -2.231172e-22 6.9118669e-41)
(0.0013743615 -0.0010642628 1.9897484e-22 0.001020965 -1.7493111e-22 2.7864475e-40)
(0.0010876519 -0.00091267059 -6.4019823e-24 0.0010090173 1.3966888e-23 5.117956e-41)
(0.00084250673 -0.00076051665 -3.3862314e-24 0.00098941384 1.2262968e-23 6.343973e-41)
(8.4555573e-05 -5.6521664e-05 2.4110066e-23 3.8798553e-05 -9.2167547e-24 6.6050782e-41)
(0.00050459216 -0.00034968682 6.3089041e-22 0.00024308569 -4.1037201e-22 4.35492e-39)
(0.0010048632 -0.00067561252 -2.0359672e-22 0.00045686226 1.366141e-22 2.3652697e-39)
(0.0015430253 -0.00097782241 -1.6160954e-21 0.00062669295 1.0092459e-21 1.032954e-38)
(0.0020455843 -0.001235696 -5.6670072e-23 0.00075992946 3.5794918e-23 1.3030859e-40)
(0.00247571 -0.001438774 1.2536642e-21 0.00085765123 -7.3843402e-22 3.4191194e-39)
(0.0028103654 -0.0015851425 -5.1693139e-22 0.00092475934 3.0124356e-22 1.1776162e-40)
(0.0030345353 -0.001677599 -1.5627031e-22 0.00096816032 9.0277562e-23 4.2044941e-41)
(0.0031416596 -0.001720899 5.9551209e-22 0.00099416286 -3.460295e-22 3.2173192e-40)
(0.0031334733 -0.0017206001 -7.245408e-22 0.0010079231 4.278551e-22 3.6996399e-40)
(0.0030193575 -0.0016825329 -5.1584294e-22 0.0010134864 3.1219883e-22 4.5591476e-40)
(0.0028153249 -0.0016124947 1.1188675e-21 0.0010138677 -7.0420751e-22 2.3195302e-39)
(0.002542443 -0.0015160943 5.2309139e-22 0.0010111605 -3.503845e-22 1.6365173e-40)
(0.0022247266 -0.0013986983 -8.2836525e-22 0.0010066659 5.9234001e-22 8.0588415e-40)
(0.0018867379 -0.0012654285 1.4957367e-22 0.0010010201 -1.1527847e-22 6.6964892e-41)
(0.0015512286 -0.0011211688 -3.3367501e-22 0.00099430594 2.881449e-22 1.7939332e-40)
(0.0012371276 -0.00097056476 -1.3813946e-22 0.00098617986 1.4056926e-22 5.6268557e-41)
(0.00095809855 -0.00081793016 4.2838836e-22 0.00097604505 -4.7397228e-22 9.1061293e-40)
(0.00072254863 -0.00066675353 2.0427852e-22 0.00096211287 -2.6912963e-22 1.7388537e-40)
(0.00053632815 -0.00052048637 -8.9043609e-23 0.00093525949 1.0988804e-22 1.2970684e-39)
(0.00010773253 -6.1369633e-05 -2.030194e-22 3.574208e-05 8.6408377e-23 1.6969229e-39)
(0.00062117714 -0.00036912355 -3.3887705e-22 0.00021992737 1.8825925e-22 1.7688808e-39)
(0.0012149416 -0.00070237643 -3.85842e-22 0.00040843297 2.2482479e-22 4.421491e-39)
(0.0018162824 -0.00099900897 1.2948341e-23 0.00055599055 -7.1115508e-24 4.8017657e-43)
(0.0023429643 -0.001241025 1.2990207e-23 0.00067007781 -6.2210092e-24 3.1770285e-39)
(0.0027556212 -0.001420485 4.3913535e-22 0.00075304581 -2.3382385e-22 8.8857785e-40)
(0.0030341933 -0.0015384853 4.3268356e-23 0.00081051713 -2.1514913e-23 3.6779343e-40)
(0.0031712104 -0.0016006542 -7.502108e-22 0.00084935464 4.0180252e-22 2.3570063e-40)
(0.0031707564 -0.0016140483 8.9070743e-22 0.00087544858 -4.8883078e-22 4.4505289e-40)
(0.0030469696 -0.001585938 2.9406145e-22 0.00089332422 -1.6928423e-22 4.8682146e-40)
(0.0028219558 -0.0015233214 -8.1259205e-22 0.00090624102 4.8835613e-22 1.0079072e-39)
(0.0025232031 -0.0014327264 -2.5610461e-22 0.0009163248 1.6480303e-22 3.288667e-40)
(0.0021805424 -0.0013202032 9.207269e-23 0.00092472504 -6.3790346e-23 8.8979701e-40)
(0.0018229781 -0.001191417 2.2358319e-22 0.00093179125 -1.7186477e-22 1.2848411e-40)
(0.0014758586 -0.0010517527 -7.8902616e-23 0.00093725186 6.766613e-23 9.8009405e-41)
(0.001158813 -0.00090637058 1.837821e-22 0.00094039289 -1.8197824e-22 7.817543e-41)
(0.00088470999 -0.00076018699 -1.2695306e-22 0.00094023504 1.4796692e-22 3.0151873e-41)
(0.00065966291 -0.00061774429 -2.6113815e-22 0.00093564439 3.5703946e-22 7.2884652e-40)
(0.00048403562 -0.00048288113 -9.685833e-24 0.00092512456 1.0292631e-23 6.5285611e-40)
(0.00035457789 -0.00035916854 9.1294973e-23 0.00090549972 -1.9453871e-22 7.5468057e-41)
(0.00013280371 -6.3542264e-05 -1.6130136e-22 3.0996107e-05 5.9432651e-23 8.4277854e-40)
(0.00073919035 -0.00037154731 2.483895e-22 0.00018721391 -1.2183047e-22 1.5763112e-40)
(0.0014183472 -0.00069628632 2.2028406e-22 0.00034395424 -1.0858548e-22 1.8212512e-40)
(0.0020655585 -0.00097448244 4.8022661e-22 0.00046570508 -2.291773e-22 1.9636848e-39)
(0.0025927941 -0.001191757 4.2334248e-22 0.00055972758 -2.0093336e-22 8.73647e-40)
(0.002962299 -0.0013434752 -7.4666051e-22 0.00062928281 3.5437311e-22 6.6791719e-40)
(0.0031619352 -0.001433757 -4.1863083e-22 0.00068005405 2.0215804e-22 1.9018031e-40)
(0.0031965677 -0.0014704567 0 0.00071816564 0 0)
(0.0030846938 -0.0014619974 4.5919478e-22 0.00074847339 -2.4869826e-22 2.4477328e-39)
(0.0028548515 -0.0014163086 -2.0023985e-22 0.00077435457 1.176063e-22 9.2721526e-40)
(0.002541573 -0.0013405645 -1.1783181e-21 0.00079787024 7.0030336e-22 8.2688728e-40)
(0.0021811412 -0.0012412398 -1.5111519e-22 0.00081995106 9.4893009e-23 1.6576984e-40)
(0.0018075303 -0.001124316 5.8519332e-22 0.00084060839 -4.333465e-22 1.1183896e-39)
(0.0014490923 -0.00099549238 3.2274916e-23 0.00085916887 -2.1120969e-23 4.611916e-40)
(0.001126463 -0.00086028756 -9.1171708e-24 0.00087452183 8.8680705e-24 3.2557664e-43)
(0.00085189443 -0.00072399137 9.8455595e-23 0.00088537434 -1.130357e-22 5.7310184e-41)
(0.00062990608 -0.00059148549 2.2365549e-25 0.00089047847 2.3241148e-24 6.6776456e-41)
(0.00045888098 -0.00046699651 -1.7602501e-22 0.00088874245 2.9359665e-22 1.7622806e-40)
(0.0003330386 -0.00035383359 -9.8405355e-23 0.00087963157 2.0457446e-22 1.2241147e-40)
(0.0002445522 -0.00025444495 5.0536412e-23 0.00086434967 -1.507302e-22 7.6097074e-40)
(0.00015862594 -6.2427145e-05 1.2199833e-22 2.5005194e-05 -3.8872508e-23 3.315391e-40)
(0.00085121157 -0.00035483784 5.0847596e-22 0.00014828543 -2.0281046e-22 2.9871069e-39)
(0.0016007976 -0.00065536389 4.0267148e-22 0.00027020383 -1.6582279e-22 1.8957043e-40)
(0.0022717938 -0.00090436913 4.474889e-22 0.00036544179 -1.8273445e-22 1.0508525e-39)
(0.0027747803 -0.0010916898 -6.9019759e-22 0.00044062305 2.8492377e-22 1.6560806e-39)
(0.0030788858 -0.0012160705 2.7034733e-23 0.00049933079 -8.6979008e-24 1.5753225e-40)
(0.0031850444 -0.0012838028 3.9735308e-23 0.00054658178 -1.7270015e-23 1.3288932e-42)
(0.0031143307 -0.0013035992 5.6679737e-22 0.00058714842 -2.6319693e-22 5.926172e-40)
(0.0029014363 -0.0012837961 7.6783961e-23 0.00062438796 -3.783606e-23 5.3534624e-42)
(0.0025885282 -0.0012317231 -2.0691264e-22 0.00066019444 1.167497e-22 3.2038902e-40)
(0.002219311 -0.0011538406 6.751724e-22 0.00069520652 -4.1698368e-22 2.2356664e-39)
(0.0018337995 -0.0010560939 -4.9258038e-22 0.00072903956 3.2329971e-22 1.9416889e-40)
(0.0014643884 -0.0009442486 -9.3190896e-22 0.00076055683 7.2421447e-22 1.376077e-39)
(0.0011336918 -0.00082404191 -3.0962411e-23 0.00078817723 2.8330111e-23 2.9072414e-42)
(0.00085425183 -0.00070109105 3.3514181e-22 0.00081019826 -3.7244345e-22 1.1108884e-39)
(0.0006298066 -0.00058061106 0 0.00082510651 0 0)
(0.0004575336 -0.00046705544 4.2162083e-23 0.00083180576 -6.0525871e-23 2.8891596e-41)
(0.00033060394 -0.00036381919 -2.1467751e-23 0.00082966715 4.6529804e-23 4.295325e-41)
(0.00024038585 -0.00027310707 -2.1616524e-23 0.00081909476 4.6997262e-23 1.1320383e-41)
(0.0001780903 -0.0001959119 1.0559774e-23 0.00080350529 -4.4046506e-23 7.7197313e-41)
(0.00018380187 -5.7655229e-05 2.6685865e-22 1.8393105e-05 -6.8759409e-23 1.3407628e-39)
(0.00094937873 -0.00031867226 2.6322895e-23 0.00010726348 -8.6401132e-24 2.4825526e-42)
(0.001748604 -0.00058121311 -7.5630849e-23 0.00019485211 2.5532778e-23 1.0993789e-41)
(0.0024188909 -0.00079369003 7.867683e-23 0.00026530777 -2.5289537e-23 2.1715195e-40)
(0.002874996 -0.00095007372 -4.7594552e-22 0.00032420061 1.6675873e-22 4.0754425e-40)
(0.0030985037 -0.0010516053 -2.2952622e-22 0.00037480277 8.3430041e-23 3.6893737e-41)
(0.0031075874 -0.0011050304 1.6384508e-22 0.00042089403 -5.019895e-23 1.160308e-39)
(0.0029412872 -0.0011180361 -5.8958808e-24 0.00046554424 6.6841151e-24 9.0760832e-41)
(0.0026494583 -0.001097312 -3.898546e-22 0.00051041607 1.9302308e-22 9.6029733e-40)
(0.0022842996 -0.0010485814 6.7808469e-22 0.00055582004 -3.5132705e-22 2.8464677e-40)
(0.0018933838 -0.00097715903 -1.8478225e-23 0.00060094585 2.5651971e-23 4.985505e-40)
(0.0015147623 -0.00088845159 -5.4164518e-22 0.00064414885 3.9187895e-22 1.3782281e-39)
(0.0011745373 -0.00078816838 0 0.00068330626 0 0)
(0.00088684774 -0.0006821721 1.3315019e-22 0.00071621481 -1.4991637e-22 7.3824286e-40)
(0.00065572209 -0.00057606109 6.8977623e-24 0.00074097301 -1.4192653e-23 4.0385674e-41)
(0.00047795242 -0.00047466653 -1.6244736e-22 0.00075628715 2.5347968e-22 8.5913428e-40)
(0.00034614253 -0.00038164389 -3.679892e-23 0.00076161725 6.5471262e-23 1.8022896e-41)
(0.00025130232 -0.00029928906 -1.1424478e-23 0.00075709846 3.0634276e-23 2.8808805e-41)
(0.00018458707 -0.00022864477 -1.4873317e-23 0.00074398439 4.133667e-23 1.1248182e-41)
(0.00013819322 -0.00016964135 2.6997677e-23 0.00072644058 -1.0134056e-22 1.0731944e-40)
(0.00020683614 -4.9192973e-05 1.0284015e-22 1.190125e-05 -1.9787581e-23 2.1233086e-40)
(0.0010264011 -0.00026475836 -7.3929696e-22 6.8535538e-05 1.8602805e-22 4.6173954e-39)
(0.0018505358 -0.00047899216 -6.4801256e-23 0.00012541903 1.8422783e-23 4.3114588e-40)
(0.0024959987 -0.00065170412 -1.9633827e-22 0.00017449758 5.7898903e-23 2.1684131e-39)
(0.0028877973 -0.00078004452 -1.4931799e-22 0.00022002299 4.1390397e-23 3.0044762e-41)
(0.0030247196 -0.00086590869 -8.4588297e-22 0.00026452069 2.6169791e-22 3.9859699e-40)
(0.0029442303 -0.00091422752 -4.1542003e-22 0.00031032623 1.4599669e-22 3.2067078e-40)
(0.002702284 -0.00092975823 8.0620637e-22 0.00035882083 -3.0287963e-22 2.6076711e-40)
(0.0023601478 -0.00091637846 1.3840145e-22 0.00041005767 -7.089411e-23 3.2871027e-40)
(0.0019746201 -0.00087779426 -1.7800511e-22 0.00046285994 8.0566885e-23 1.1261451e-40)
(0.0015914685 -0.00081829676 8.3112183e-23 0.00051508896 -3.0659341e-23 4.217604e-40)
(0.0012422933 -0.0007430728 -1.6297987e-23 0.00056403047 2.1119234e-23 1.0690547e-40)
(0.00094454267 -0.00065799057 0 0.00060687224 0 0)
(0.00070384408 -0.00056900325 8.9610575e-23 0.00064118407 -9.2467788e-23 2.6105953e-41)
(0.00051750944 -0.00048143992 -1.9146005e-22 0.00066529752 2.4763554e-22 3.5442485e-40)
(0.00037813105 -0.00039944202 -6.2305563e-23 0.00067851122 9.4447852e-23 3.0680164e-41)
(0.00027653134 -0.00032568953 1.0848375e-22 0.00068106947 -2.1413767e-22 4.2259613e-40)
(0.0002037568 -0.00026144571 -2.3484477e-23 0.00067392107 3.1371886e-23 9.0478429e-41)
(0.00015209367 -0.000206899 -1.3335016e-24 0.000658925 -2.819131e-24 1.0147334e-41)
(0.00011531051 -0.00016146689 2.4834735e-23 0.00064007213 -7.2676362e-23 9.3824332e-42)
(0.000226303 -3.7373877e-05 7.4754157e-23 6.2893057e-06 -9.8061107e-24 1.3296918e-40)
(0.0010764883 -0.00019669297 -6.8692677e-22 3.6136459e-05 1.2373843e-22 2.1184842e-39)
(0.0018992042 -0.00035673194 -5.3658643e-22 6.8223825e-05 1.0635516e-22 2.5344603e-39)
(0.0024987288 -0.00049048421 7.7080331e-22 0.00010008021 -1.6066766e-22 6.2241433e-40)
(0.0028160123 -0.0005964299 5.8379431e-22 0.00013469901 -1.309038e-22 1.3026852e-40)
(0.0028698507 -0.0006746312 -4.2958674e-22 0.00017384177 9.4447487e-23 1.3465786e-39)
(0.002716265 -0.00072594234 1.3961278e-22 0.00021865097 -5.2834593e-23 5.6987963e-40)
(0.0024243908 -0.0007508052 8.2244357e-22 0.00026916404 -2.8968714e-22 6.4382074e-40)
(0.0020613988 -0.00074984765 3.6155273e-22 0.0003240978 -1.4119181e-22 8.176761e-41)
(0.0016829665 -0.00072499073 -3.5642182e-22 0.00038098871 1.8034828e-22 2.1020345e-40)
(0.0013286048 -0.00067998211 -4.8453209e-22 0.00043657429 2.8605493e-22 2.5324257e-40)
(0.0010212136 -0.00062014681 -1.3244405e-23 0.00048735142 9.4746714e-24 2.6413288e-43)
(0.0007696648 -0.00055157146 1.4008896e-22 0.00053018893 -1.2121025e-22 4.1092005e-41)
(0.00057289587 -0.00048010472 -5.1440815e-24 0.00056283222 1.5866724e-23 6.1609191e-41)
(0.00042413088 -0.00041053913 -5.6798558e-24 0.00058418001 2.5846511e-23 1.6674684e-40)
(0.00031431391 -0.00034618142 4.4345014e-24 0.00059429666 -3.3797791e-23 3.0122036e-40)
(0.00023439622 -0.00028882361 4.9973885e-23 0.00059418539 -9.7512e-23 8.8787612e-41)
(0.00017655027 -0.0002390111 -2.868225e-23 0.00058541286 8.2109178e-23 2.305141e-40)
(0.00013456819 -0.00019651197 -7.3136695e-23 0.00057009312 1.9926305e-22 4.4862306e-40)
(0.00010371014 -0.00016065903 2.419001e-23 0.00055152839 -5.8339693e-23 1.0217922e-41)
(0.00024107714 -2.2873118e-05 -1.9488119e-22 2.2270142e-06 1.6245158e-23 3.9738912e-40)
(0.001096143 -0.00011951174 -1.5486014e-22 1.3191675e-05 1.6569054e-23 4.2910593e-40)
(0.0018918201 -0.0002242353 1.1809242e-21 2.7588418e-05 -1.4951056e-22 5.2390445e-39)
(0.0024294066 -0.0003231837 8.8230619e-22 4.6273147e-05 -1.2703578e-22 5.7435132e-40)
(0.0026700362 -0.00041364349 3.9685138e-22 7.1515767e-05 -6.1779676e-23 2.8168913e-40)
(0.0026525107 -0.00049128407 8.0161815e-23 0.00010481142 -1.625701e-23 2.733864e-42)
(0.0024478759 -0.00055121182 -7.5450927e-22 0.00014674609 1.6584652e-22 1.1779575e-39)
(0.0021328775 -0.00058902197 0 0.00019653643 0 0)
(0.0017747256 -0.00060240312 -4.6399209e-22 0.00025188733 1.9814952e-22 9.7485531e-40)
(0.0014233868 -0.00059213853 -8.0091e-23 0.00030927147 5.1796418e-23 2.2046328e-40)
(0.001109764 -0.0005619624 2.2832483e-22 0.0003645497 -1.307408e-22 5.4847456e-41)
(0.00084805267 -0.00051752192 2.4796426e-23 0.00041375647 -3.0935805e-23 1.2127081e-40)
(0.0006402705 -0.00046499452 -1.0956641e-22 0.00045380607 1.0567878e-22 1.4172195e-40)
(0.0004811485 -0.00040988282 -8.2905129e-23 0.00048292041 1.0668338e-22 3.0236184e-40)
(0.0003621921 -0.00035629825 5.3167265e-23 0.00050070609 -5.3535281e-23 3.7249206e-41)
(0.00027442694 -0.00030677809 7.3856209e-23 0.0005079337 -9.4178766e-23 3.479542e-41)
(0.00020988811 -0.0002624911 -6.6055027e-23 0.00050613813 1.0787267e-22 3.2544852e-41)
(0.00016218985 -0.00022363693 -8.8966873e-23 0.00049718603 1.8818009e-22 3.7552209e-40)
(0.00012653887 -0.00018991301 6.711001e-24 0.00048311598 -1.5165422e-24 4.3860251e-41)
(9.9408522e-05 -0.00016077996 1.2229256e-23 0.00046634044 -4.0079968e-23 5.1867928e-41)
(0.00025029831 -6.5997554e-06 -1.2856951e-22 1.9961206e-07 3.2762078e-24 1.9438576e-40)
(0.0010842038 -3.9055056e-05 5.50846e-22 1.5416328e-06 -1.9686691e-23 1.0785378e-39)
(0.0018301678 -9.1921737e-05 8.4198609e-22 5.441617e-06 -5.1612025e-23 7.8193558e-39)
(0.0022964923 -0.00016256817 -9.9090001e-22 1.4311358e-05 8.4832259e-23 2.1556741e-39)
(0.0024659737 -0.00024427557 3.5938692e-22 3.0746645e-05 -3.9066078e-23 5.4844722e-41)
(0.0023944084 -0.00032633387 1.4867416e-22 5.6887293e-05 6.3979338e-25 1.9884267e-39)
(0.0021623454 -0.00039742062 3.8985924e-23 9.3566522e-05 -7.8243006e-24 7.2737838e-43)
(0.001848074 -0.00044867009 -5.5606902e-22 0.0001396914 1.2725919e-22 6.7361441e-40)
(0.001513954 -0.00047568715 -1.2649083e-23 0.00019223092 4.3314445e-24 1.0958465e-43)
(0.0012015873 -0.00047887936 2.08407e-22 0.00024681398 -1.0712943e-22 2.5646313e-40)
(0.00093300596 -0.00046232668 1.6444318e-23 0.00029870667 -1.6492958e-23 3.6570495e-41)
(0.00071522059 -0.00043195942 -7.5024275e-23 0.00034381317 2.0461562e-23 4.7311803e-40)
(0.00054572051 -0.0003938215 -1.6803852e-22 0.00037937759 1.3536403e-22 5.435442e-41)
(0.00041727231 -0.0003528965 -1.1119495e-24 0.0004042317 1.2861906e-23 6.1611886e-41)
(0.00032129867 -0.00031262608 5.720394e-23 0.000418626 -7.4024569e-23 6.0547998e-41)
(0.00024980865 -0.0002749724 3.8188271e-23 0.00042380806 -5.9655849e-23 5.8613022e-41)
(0.00019622447 -0.0002407695 8.8626333e-24 0.00042153448 -2.8179781e-23 9.4595398e-41)
(0.00015553796 -0.00021015002 -6.0829271e-23 0.00041366636 8.5038905e-23 7.6686023e-41)
(0.0001241337 -0.00018292299 -1.2195e-23 0.0004019433 -7.783011e-24 3.2430947e-40)
(9.9410509e-05 -0.00015871103 3.4032829e-23 0.0003879023 -1.028045e-22 5.3599016e-40)
(1.6628783e-06 -2.0785999e-07 1.6614097e-23 2.5381087e-07 -3.3239102e-24 1.8994167e-40)
(7.8372047e-06 -3.2803683e-06 -2.3708824e-23 1.685077e-06 6.5694246e-24 1.8285187e-40)
(1.7554851e-05 -7.58078e-06 5.2658768e-23 3.3595758e-06 -1.9741745e-23 1.0503982e-39)
(5.6282539e-05 -1.5999933e-05 1.4703975e-22 4.8195838e-06 -3.1389286e-23 3.5322476e-39)
(0.00012353274 -2.6401969e-05 -1.0510318e-22 6.1339067e-06 1.79334e-23 9.1873359e-40)
(0.00022082353 -3.8056924e-05 1.3254319e-22 7.303864e-06 -1.8033481e-23 1.0151186e-39)
(0.00035136965 -5.0572449e-05 -1.8220333e-22 8.3310062e-06 2.3212994e-23 1.1152528e-39)
(0.00051606948 -6.3555746e-05 -1.8803644e-22 9.2363029e-06 1.9742956e-23 1.1789921e-39)
(0.00071420738 -7.6687949e-05 2.3697959e-22 1.0042302e-05 -2.4700638e-23 1.246931e-39)
(0.00094453695 -8.9734127e-05 -1.8424867e-22 1.076653e-05 1.8105033e-23 6.3518617e-40)
(0.0012054863 -0.0001025174 -9.1608825e-24 1.142227e-05 1.5360967e-25 7.3796368e-42)
(0.0014951826 -0.00011490068 5.3353512e-23 1.2019674e-05 -5.7075871e-24 2.3414665e-41)
(0.0018115429 -0.00012677589 -9.1534752e-24 1.256651e-05 4.4647081e-25 3.7046755e-42)
(0.0021523592 -0.00013805738 2.9118357e-22 1.3069017e-05 -2.6273527e-23 1.1131671e-39)
(0.0025153493 -0.00014867986 3.1242906e-25 1.3532963e-05 5.5074393e-25 2.4012011e-42)
(0.0028982096 -0.00015860247 -4.3134422e-22 1.3964716e-05 4.0491913e-23 2.2904253e-39)
(0.0032986836 -0.00016781216 8.0390253e-23 1.4371088e-05 -8.4462368e-24 4.8455951e-41)
(0.0037145726 -0.00017630806 1.9604012e-22 1.47571e-05 -1.9399713e-23 5.8247115e-40)
(0.0041436931 -0.00018412508 -3.20377e-22 1.5127734e-05 3.3812302e-23 1.6513095e-39)
(0.0045835483 -0.00019150183 -1.7846325e-22 1.5479484e-05 1.9986197e-23 6.1996497e-40)
(1.8833237e-06 -8.6938176e-07 5.4764124e-24 2.2334312e-06 -2.0278271e-24 1.8826923e-41)
(9.9909463e-06 -1.1240512e-05 -1.5015179e-22 1.4849012e-05 1.1320964e-22 6.115142e-39)
(2.2420636e-05 -2.5521242e-05 2.9794535e-23 2.9596766e-05 -2.4632812e-23 5.5192411e-40)
(6.6225289e-05 -5.1804697e-05 1.5824128e-22 4.2461813e-05 -9.7283436e-23 2.9525555e-39)
(0.00013936911 -8.3814623e-05 2.1998554e-22 5.4019317e-05 -1.0586417e-22 3.3388655e-39)
(0.00024290278 -0.00011940674 2.6619446e-23 6.4264681e-05 -1.0695685e-23 3.1367144e-41)
(0.0003796719 -0.00015740927 -7.0837609e-22 7.3213981e-05 2.4605475e-22 1.6701644e-38)
(0.00055012881 -0.00019666046 -2.5049679e-23 8.1053154e-05 1.0405146e-23 4.8453713e-42)
(0.00075315801 -0.00023622356 4.0198567e-22 8.7980337e-05 -1.2282657e-22 2.8517324e-39)
(0.00098714776 -0.00027540809 -9.7153835e-23 9.4149831e-05 2.6935851e-23 1.5856506e-40)
(0.0012501639 -0.00031369237 -3.6965478e-22 9.9678548e-05 1.0171497e-22 1.7596423e-39)
(0.0015399669 -0.00035067015 7.7925268e-23 0.00010465522 -2.0013227e-23 8.0113144e-41)
(0.0018540982 -0.00038601878 3.2935548e-22 0.00010914663 -7.4083773e-23 1.8864863e-39)
(0.0021899569 -0.00041947889 1.3672155e-22 0.00011320488 -3.4141168e-23 2.15619e-40)
(0.0025448368 -0.00045084704 2.7465553e-22 0.00011687648 -7.3314348e-23 6.241757e-40)
(0.0029159778 -0.0004799864 -2.1772923e-22 0.00012021144 5.4955747e-23 5.2774207e-40)
(0.003300693 -0.00050684054 -2.0896663e-22 0.0001232641 5.2171764e-23 5.77151e-40)
(0.0036963173 -0.00053138341 2.1232477e-22 0.00012607776 -6.0048676e-23 3.3415485e-40)
(0.0040994414 -0.00055370586 1.9516111e-22 0.00012870134 -5.3776045e-23 5.8347798e-40)
(0.004506059 -0.00057472468 7.6342222e-23 0.00013112292 -2.0177362e-23 2.4759243e-40)
(2.4207306e-06 -2.2251165e-06 4.2136777e-24 5.9560741e-06 -2.1121868e-24 9.9167913e-42)
(1.5102476e-05 -2.3229906e-05 1.1404719e-22 3.9638572e-05 -1.2206915e-22 2.6061884e-39)
(3.3754843e-05 -5.13401e-05 -2.4967351e-23 7.8949128e-05 3.2178804e-23 1.3649325e-40)
(8.8197658e-05 -9.8358696e-05 -1.7194701e-22 0.00011322616 1.4483729e-22 3.231692e-39)
(0.00017354804 -0.00015421773 6.3463088e-23 0.00014391355 -5.3331477e-23 9.1757175e-41)
(0.00028991555 -0.00021545478 8.4253335e-23 0.00017093208 -6.8534183e-23 4.8598246e-41)
(0.00043940084 -0.00028013365 -1.0477642e-22 0.00019431935 5.5650759e-23 2.880358e-40)
(0.00062161216 -0.00034637252 -2.7473703e-22 0.00021457004 1.6054422e-22 5.7712406e-40)
(0.00083466785 -0.00041266594 1.2028568e-22 0.00023221051 -5.8595347e-23 1.6104526e-40)
(0.0010762445 -0.0004778989 2.5559811e-22 0.00024765386 -1.0660851e-22 9.1404153e-40)
(0.001343702 -0.00054122067 7.1890611e-23 0.00026121477 -4.9610188e-23 3.4536484e-41)
(0.0016340869 -0.00060196032 3.1324108e-22 0.00027313106 -1.0452539e-22 1.6956585e-39)
(0.0019442095 -0.00065957477 2.6661505e-23 0.00028357849 -9.9119351e-24 7.0361767e-42)
(0.0022707057 -0.00071361389 -4.6781272e-22 0.00029268842 1.5864678e-22 2.7275516e-39)
(0.002610055 -0.00076370652 3.4851749e-23 0.00030057199 -2.2747573e-23 1.515303e-41)
(0.002958631 -0.00080957872 -2.1960495e-22 0.00030734568 6.156037e-23 1.062368e-39)
(0.0033129476 -0.00085108665 -3.1165646e-22 0.00031313725 1.231151e-22 4.3810553e-40)
(0.0036695202 -0.0008881346 5.078302e-22 0.00031807314 -1.9712884e-22 1.453344e-39)
(0.0040228674 -0.0009208333 2.6942999e-22 0.00032236162 -1.1065307e-22 2.9626837e-40)
(0.0043667092 -0.0009511511 5.3601214e-23 0.00032611525 -2.414753e-23 6.3658111e-42)
(3.5658191e-06 -4.6014433e-06 -6.3011202e-24 1.0966788e-05 7.9290163e-24 1.4569245e-41)
(2.4762312e-05 -4.1250315e-05 -2.6430819e-22 7.3129666e-05 3.3423542e-22 8.6495588e-39)
(5.4807382e-05 -8.8961569e-05 -1.9184365e-23 0.00014553822 2.4654191e-23 1.1818328e-40)
(0.00012686883 -0.00016090272 4.441557e-23 0.00020857843 -4.9165175e-23 7.5437246e-41)
(0.00023210665 -0.00024374176 -7.0990047e-24 0.00026474031 1.7996764e-24 1.9462567e-41)
(0.00036923737 -0.00033277746 2.2640555e-22 0.0003137187 -1.6606233e-22 1.4206895e-39)
(0.00053920966 -0.00042530302 2.506368e-22 0.00035555515 -1.6382775e-22 1.2907453e-39)
(0.00074037444 -0.00051878128 -7.5847235e-23 0.00039116026 3.6720381e-23 2.0332352e-40)
(0.00096969533 -0.00061120254 -2.7907499e-22 0.00042150939 1.4600205e-22 1.2932723e-39)
(0.001223759 -0.00070106416 -5.6424586e-22 0.00044737971 3.0465716e-22 2.7443405e-39)
(0.001498842 -0.00078720155 -1.199708e-23 0.00046937182 -6.6804551e-24 6.258446e-41)
(0.0017909031 -0.00086868007 7.2016655e-22 0.00048794336 -3.3605536e-22 4.4842684e-39)
(0.0020956466 -0.00094472275 -2.9187106e-22 0.00050343112 1.1176521e-22 1.3249111e-39)
(0.0024085835 -0.001014668 -1.8938666e-22 0.00051608333 8.3058474e-23 2.6167715e-40)
(0.0027250351 -0.0010779461 -2.3328263e-23 0.0005260997 2.5577412e-23 5.6440049e-41)
(0.003040194 -0.0011341027 4.509879e-22 0.00053367604 -1.977018e-22 1.0741919e-39)
(0.0033495135 -0.0011828636 -2.5651573e-22 0.00053902212 1.2797233e-22 7.2765093e-41)
(0.00364857 -0.0012240677 -5.8943534e-22 0.00054240641 2.4796367e-22 2.3120826e-39)
(0.0039295093 -0.0012578567 3.9778872e-22 0.00054448726 -1.7261567e-22 1.1628065e-39)
(0.0041835459 -0.0012874291 3.4289532e-22 0.00054599519 -1.3726957e-22 1.0808426e-39)
(5.7026e-06 -8.1949031e-06 2.830166e-23 1.6716451e-05 -2.750349e-23 1.8624092e-40)
(4.1094615e-05 -6.6477878e-05 9.1005769e-24 0.00011162933 -2.2922272e-24 8.4325841e-41)
(8.9877468e-05 -0.00014066137 -3.6495596e-22 0.00022179943 5.2227175e-22 7.0995812e-39)
(0.00018826809 -0.00024233733 -2.0963857e-22 0.0003174132 2.2262068e-22 2.1947916e-39)
(0.00032250696 -0.00035547029 1.3973405e-22 0.00040200498 -1.1126647e-22 1.3263003e-39)
(0.00048941028 -0.00047411681 1.7433295e-22 0.00047485975 -1.4046782e-22 6.249956e-40)
(0.0006882672 -0.00059475977 -2.2673474e-22 0.00053600998 1.4812172e-22 1.4620844e-39)
(0.00091568482 -0.00071428018 -3.4606319e-22 0.00058686451 1.9871014e-22 3.2083829e-39)
(0.0011670116 -0.00083024565 5.139035e-22 0.00062894695 -3.0706941e-22 3.2932251e-39)
(0.0014372963 -0.00094082286 1.4698317e-22 0.00066349823 -5.9564041e-23 7.6629211e-40)
(0.0017212962 -0.0010445728 -4.6742169e-22 0.00069150239 3.0881886e-22 2.5649872e-40)
(0.0020134744 -0.0011403274 2.0428442e-22 0.00071372745 -9.2994191e-23 5.9019025e-40)
(0.0023080828 -0.0012271097 0 0.0007307549 0 0)
(0.0025992314 -0.0013040795 2.0029089e-22 0.00074301944 -9.7623528e-23 2.3120901e-40)
(0.0028809132 -0.0013705057 -1.5064579e-22 0.0007508633 7.1594262e-23 1.2348581e-40)
(0.0031471025 -0.0014257902 -2.3157051e-22 0.0007545955 1.1543527e-22 1.5021139e-40)
(0.0033923399 -0.00146957 8.6125667e-23 0.00075451004 -6.9537495e-23 2.1070251e-40)
(0.0036117288 -0.0015017248 -6.9928802e-23 0.00075102771 4.1532904e-23 7.6657936e-42)
(0.0037956773 -0.0015225928 3.3685129e-22 0.00074560949 -1.4566846e-22 1.2508872e-39)
(0.0039326921 -0.0015364768 -2.7273481e-22 0.00074061341 1.3305589e-22 7.3542981e-41)
(9.2762541e-06 -1.3068663e-05 2.7139996e-23 2.2661983e-05 -2.2818419e-23 1.4954656e-40)
(6.6502079e-05 -9.9143262e-05 1.3110975e-22 0.0001512608 -1.7451288e-22 5.5980202e-40)
(0.00014372045 -0.00020671519 -1.7600595e-22 0.00029963682 2.3341754e-22 1.3318556e-39)
(0.00027875163 -0.00034260065 -2.8965888e-22 0.00042771146 3.2560052e-22 1.1167565e-39)
(0.0004520041 -0.00048856224 -8.6303348e-23 0.00053994425 1.2567867e-22 8.8107112e-40)
(0.00065772786 -0.00063732353 -2.6234004e-22 0.00063509181 2.3026137e-22 5.4839123e-40)
(0.00089289135 -0.00078450988 -1.2162366e-22 0.00071322554 7.4897877e-23 6.3291615e-40)
(0.0011517799 -0.00092652391 2.1123114e-22 0.00077633772 -1.2707677e-22 1.1675187e-39)
(0.0014276024 -0.0010606382 5.0635002e-22 0.00082659703 -3.0181037e-22 3.9980096e-39)
(0.001713387 -0.0011848106 1.5647417e-22 0.00086582091 -9.6264567e-23 1.6776343e-40)
(0.0020019859 -0.0012974574 -1.486876e-22 0.00089549576 7.8970433e-23 2.6601555e-40)
(0.0022860953 -0.0013973164 -2.7275048e-23 0.00091682125 -6.1147811e-24 2.3162158e-40)
(0.0025583958 -0.0014833634 -7.1219217e-22 0.00093074201 3.8933732e-22 2.2081949e-39)
(0.0028116918 -0.0015547583 -2.2151904e-22 0.00093799204 1.1574347e-22 2.2839287e-40)
(0.0030390089 -0.0016108146 3.7229708e-22 0.00093915472 -2.1459608e-22 1.0932109e-40)
(0.0032337628 -0.0016510129 -3.7172276e-22 0.00093472273 2.0030622e-22 2.2664054e-40)
(0.0033905347 -0.0016751054 -1.3135274e-22 0.00092508022 6.4557128e-23 7.2277551e-41)
(0.0035053696 -0.0016832262 2.9512623e-22 0.00091069706 -1.2464834e-22 1.1222438e-39)
(0.0035689891 -0.0016762146 4.4939403e-22 0.00089394324 -2.2387053e-22 8.5241725e-40)
(0.003567445 -0.0016591253 5.4650768e-23 0.00088005803 -2.5495391e-23 1.6583574e-41)
(1.4761214e-05 -1.9156938e-05 -7.6539504e-23 2.8310498e-05 6.2140503e-23 8.8477989e-40)
(0.0001033832 -0.00013850868 -8.4678863e-23 0.00018835003 8.5902239e-23 7.0523379e-40)
(0.00022083635 -0.00028525969 2.1601231e-22 0.00037132843 -2.7248581e-22 3.272314e-40)
(0.00040380655 -0.00045838545 3.2872988e-22 0.00052799263 -3.4018419e-22 1.4802544e-39)
(0.00062590972 -0.00063787485 4.2946808e-24 0.00066356323 -3.8639706e-24 2.9371685e-43)
(0.00087795105 -0.00081500854 -8.9388384e-22 0.00077630219 7.3682444e-22 8.6410057e-39)
(0.0011537856 -0.00098457021 -3.5176339e-22 0.00086647334 3.0030795e-22 1.2483738e-40)
(0.0014447695 -0.0011426699 2.7260644e-22 0.00093677213 -1.837249e-22 9.4800767e-40)
(0.0017415228 -0.0012865236 3.1349699e-22 0.00099012025 -2.1022179e-22 5.8008206e-40)
(0.0020347695 -0.0014141381 -3.0696728e-22 0.0010290294 1.7090524e-22 1.5913412e-39)
(0.0023153603 -0.0015240609 -9.0676704e-22 0.001055615 5.7088337e-22 2.3233185e-39)
(0.0025743974 -0.0016152396 5.9749703e-22 0.0010716351 -3.6113145e-22 9.552611e-40)
(0.0028034872 -0.0016869393 3.5577312e-22 0.0010785233 -1.8541709e-22 1.1427735e-39)
(0.0029950033 -0.0017386909 -4.94876e-22 0.0010774337 2.7239991e-22 9.4388751e-40)
(0.003142303 -0.0017702576 2.1807724e-22 0.0010692982 -1.2535525e-22 6.3502072e-41)
(0.0032399683 -0.0017816217 3.6258814e-22 0.0010548712 -1.8633751e-22 7.0284949e-40)
(0.0032846579 -0.0017730289 1.3850112e-22 0.0010346346 -7.7684989e-23 2.4047855e-41)
(0.0032757148 -0.0017451375 -2.3776376e-22 0.0010089056 1.4579235e-22 3.071875e-41)
(0.0032074727 -0.0016995101 -5.5662563e-23 0.00098058781 1.8362164e-23 1.7391021e-40)
(0.0030651759 -0.0016413462 3.1277409e-22 0.00095860418 -1.7956344e-22 7.1478202e-41)
(2.2625674e-05 -2.6266345e-05 -2.2298656e-24 3.3224408e-05 -2.4587767e-24 1.6599577e-41)