/*--------------------------------*- C++ -*----------------------------------*\
  =========                 |
  \\      /  F ield         | OpenFOAM: The Open Source CFD Toolbox
   \\    /   O peration     | Website:  https://openfoam.org
    \\  /    A nd           | Version:  6
     \\/     M anipulation  |
\*---------------------------------------------------------------------------*/
FoamFile
{
    version     2.0;
    format      ascii;
    class       volVectorField;
    location    "33";
    object      UMean;
}
// * * * * * * * * * * * * * * * * * * * * * * * * * * * * * * * * * * * * * //

dimensions      [0 1 -1 0 0 0 0];

internalField   nonuniform List<vector> 
9200
(
(0.005185745 -0.001759904 -6.9974952e-20)
(0.027427176 -0.012057519 6.0360728e-20)
(0.062493166 -0.021699323 -4.7045828e-20)
(0.10746584 -0.030633991 -7.8434967e-20)
(0.15998518 -0.03885511 2.3715776e-20)
(0.2185074 -0.045964329 4.2672336e-20)
(0.28168801 -0.051710298 -1.5834281e-20)
(0.34828166 -0.056000612 1.2040669e-20)
(0.41713317 -0.058828834 2.3603912e-20)
(0.48714953 -0.060248181 2.087391e-21)
(0.55728002 -0.060360609 -3.0510965e-20)
(0.62651346 -0.059305191 2.9045663e-20)
(0.69388807 -0.057246235 -5.6255895e-20)
(0.75850982 -0.054361564 -3.0134143e-20)
(0.81957669 -0.050830501 8.4280933e-21)
(0.87640487 -0.04682411 -3.6259255e-20)
(0.92846743 -0.042484742 3.6612688e-20)
(0.97550074 -0.037794187 3.3094674e-20)
(1.0173389 -0.03264297 -1.0465046e-22)
(1.0517675 -0.030031057 -1.2539859e-21)
(0.010598903 -0.0049144273 -2.0138848e-20)
(0.04390718 -0.019769072 5.0897235e-20)
(0.090650814 -0.031506292 2.7407468e-20)
(0.14747756 -0.040805266 -1.4628214e-19)
(0.21172889 -0.0481213 -1.5668485e-20)
(0.28158453 -0.053331315 9.5433959e-20)
(0.35541564 -0.05642182 -4.6145281e-20)
(0.43169047 -0.057516859 -1.132981e-20)
(0.50897543 -0.056803787 4.6586698e-20)
(0.58591937 -0.054511794 -5.9398168e-20)
(0.66124954 -0.050904351 -4.2783203e-20)
(0.73378589 -0.046267809 1.0209918e-19)
(0.80246662 -0.040898387 5.3787511e-20)
(0.86637845 -0.035089776 -9.6204402e-20)
(0.92478642 -0.029122899 2.0678467e-20)
(0.97715761 -0.023261273 -5.1980001e-20)
(1.0231862 -0.01773933 -2.0465398e-20)
(1.0628677 -0.012694998 9.9834873e-20)
(1.0963647 -0.0084686077 4.6462026e-20)
(1.1223348 -0.0078369869 -9.4076217e-20)
(0.017495953 -0.0078444935 4.1256087e-20)
(0.064230313 -0.026552969 1.3576941e-21)
(0.12436287 -0.039447945 2.4534399e-20)
(0.19417862 -0.048055491 1.2138108e-21)
(0.27074244 -0.053373127 -4.7807912e-20)
(0.35194546 -0.055618389 2.4882181e-20)
(0.43585852 -0.055076365 1.5815117e-20)
(0.52065642 -0.052143738 -6.5792891e-20)
(0.60463943 -0.047250839 7.6559108e-20)
(0.68623964 -0.040842092 2.1007746e-20)
(0.76403892 -0.033368507 -7.5724901e-20)
(0.83680143 -0.025273264 -2.6159352e-20)
(0.90351026 -0.016974884 1.0804815e-20)
(0.9633992 -0.0088518498 3.2531042e-20)
(1.0159733 -0.0012307275 -1.5557338e-20)
(1.0610127 0.0056197132 3.8200731e-20)
(1.0985633 0.011497943 -2.8228952e-20)
(1.1289428 0.016312484 -9.3397548e-20)
(1.1526039 0.019865032 -2.7147552e-20)
(1.1690495 0.020458423 6.1216479e-20)
(0.025941649 -0.010283413 2.6676389e-20)
(0.088417737 -0.031679701 5.9329696e-20)
(0.16346181 -0.044455169 2.3814916e-20)
(0.24709051 -0.051096705 1.7627378e-20)
(0.3361256 -0.053223511 2.2805781e-20)
(0.42817322 -0.051460684 -6.088729e-20)
(0.52101507 -0.046451607 -3.3489578e-20)
(0.61256703 -0.038915383 0)
(0.7009312 -0.029560906 2.3606714e-20)
(0.78443056 -0.019065299 -1.1008632e-20)
(0.86164833 -0.0080634449 -1.320012e-19)
(0.93147111 0.0028706714 -2.0242347e-20)
(0.99312285 0.013243497 8.8923832e-20)
(1.0461805 0.022656843 4.9949574e-22)
(1.0905674 0.030816084 -2.0998593e-21)
(1.1265222 0.037530099 2.8977059e-20)
(1.1545506 0.042710811 -6.0336562e-21)
(1.1753794 0.046396837 -8.0061278e-20)
(1.1898258 0.048611086 -5.9971095e-20)
(1.1980901 0.048441101 8.1574768e-20)
(0.03592166 -0.011935456 -3.4061086e-21)
(0.11625138 -0.034380779 -3.1192304e-21)
(0.20737804 -0.045451666 6.5601042e-20)
(0.30517924 -0.04869219 2.3928163e-20)
(0.40629399 -0.046414584 -4.181164e-20)
(0.50808114 -0.039713865 1.3691402e-20)
(0.60809221 -0.029641057 3.4257434e-21)
(0.70407945 -0.017268372 4.5739399e-20)
(0.79408363 -0.0035905238 7.5558749e-21)
(0.87649441 0.010501652 -1.9201127e-20)
(0.95010031 0.02423466 8.3126722e-20)
(1.0141242 0.036971843 -7.6052466e-20)
(1.0682327 0.048228985 -1.7477415e-19)
(1.1125144 0.057679899 -7.3123261e-21)
(1.1474285 0.065150942 1.0729528e-19)
(1.17373 0.070604959 0)
(1.1923816 0.074122617 1.3767117e-20)
(1.2044728 0.075902134 -1.8952415e-20)
(1.2110999 0.076146917 -1.1723517e-20)
(1.2129216 0.074421102 2.4608781e-20)
(0.047326356 -0.012489494 -3.550092e-21)
(0.14725643 -0.033898255 4.9132181e-21)
(0.25515557 -0.04144762 -1.0126087e-20)
(0.36693223 -0.039798447 3.1927159e-20)
(0.47914406 -0.032005529 -3.7227566e-20)
(0.58899141 -0.019678065 -2.135161e-20)
(0.69391701 -0.0042977364 4.2380895e-20)
(0.79167278 0.012715852 4.8058788e-21)
(0.88043864 0.030119225 -3.5051025e-20)
(0.95889506 0.046874891 9.11236e-20)
(1.0262618 0.062162072 -9.4546919e-22)
(1.0823008 0.075387371 -1.0529422e-19)
(1.1272775 0.086184453 0)
(1.161885 0.094398113 4.9856619e-20)
(1.1871407 0.10005474 6.6280288e-21)
(1.2042702 0.10332308 -9.5689182e-20)
(1.2145928 0.10447469 -2.4299006e-20)
(1.2194267 0.1038622 -1.4869923e-20)
(1.2199901 0.10182041 -1.7944172e-20)
(1.2171346 0.098203172 4.8568812e-20)
(0.059941535 -0.011641985 -1.7420588e-20)
(0.18069539 -0.029545958 -7.8526265e-21)
(0.30547717 -0.031628982 3.2176437e-20)
(0.43043782 -0.023670764 3.8482648e-20)
(0.55220452 -0.0094780242 -2.3337027e-20)
(0.66796814 0.0088178689 -8.668007e-20)
(0.77524863 0.029326103 -3.724365e-20)
(0.87201939 0.050337356 1.0016109e-19)
(0.95684046 0.070450316 1.2849975e-20)
(1.0289188 0.088596856 -3.0860182e-20)
(1.0881083 0.10403747 1.6258486e-20)
(1.1348555 0.11634814 -5.6658144e-21)
(1.1700974 0.12538978 0)
(1.1951265 0.13125971 3.3857809e-20)
(1.2114437 0.13423223 -9.7469309e-20)
(1.2206183 0.13469557 -3.8557071e-20)
(1.2241692 0.13309633 9.7621892e-20)
(1.2234816 0.12990511 -6.7167015e-21)
(1.2197441 0.1255319 3.8161734e-21)
(1.2138083 0.12000144 3.32822e-20)
(0.073445747 -0.009125645 -3.3260893e-20)
(0.21558216 -0.020780931 -9.237744e-20)
(0.35672023 -0.015450829 -2.6812166e-21)
(0.49349932 4.3211176e-05 8.4171406e-20)
(0.6228163 0.021192645 7.4886537e-20)
(0.74205945 0.045389744 -8.3083297e-20)
(0.84906443 0.070414575 2.6718671e-21)
(0.9422815 0.094384835 1.0930596e-19)
(1.0208957 0.11588392 6.0939001e-20)
(1.0848448 0.13396584 -6.8492232e-20)
(1.1347559 0.14811769 -1.1514008e-19)
(1.1718177 0.15820622 -3.9070771e-21)
(1.197614 0.16440509 5.1679637e-20)
(1.2139413 0.16710893 -7.6479337e-21)
(1.2226401 0.16684567 -1.4632847e-20)
(1.2254559 0.1641973 2.208791e-20)
(1.2239428 0.15973897 5.1970607e-20)
(1.2194118 0.15400425 -5.077151e-20)
(1.2129135 0.14742272 -1.2013369e-19)
(1.2051881 0.14011462 3.0075081e-20)
(0.087381206 -0.0047398482 -3.9445892e-20)
(0.25064533 -0.0072763548 -1.8319266e-19)
(0.40693375 0.0072881772 1.004828e-19)
(0.55363852 0.031256112 1.1044077e-19)
(0.68816872 0.059536721 6.7844715e-20)
(0.80836198 0.089155822 1.0603627e-20)
(0.91263459 0.11770794 -1.2823014e-19)
(1.0001646 0.1433099 0)
(1.0709671 0.16471065 -8.6469666e-20)
(1.1258436 0.18125486 -1.9085907e-20)
(1.1662403 0.19279364 6.6728823e-20)
(1.1940489 0.19957789 1.3068437e-20)
(1.2113889 0.20213897 -5.4440004e-20)
(1.2204051 0.20116913 -5.7695909e-20)
(1.2231041 0.197416 2.9413445e-20)
(1.2212443 0.19160065 5.366897e-20)
(1.2162802 0.18436476 -6.5636188e-20)
(1.2093546 0.17624676 -1.2503692e-19)
(1.2013256 0.16765034 -2.7122167e-21)
(1.1927764 0.15874712 3.0948309e-20)
(0.10113782 0.0016371617 -5.9215464e-21)
(0.28433887 0.011073583 9.8357591e-20)
(0.45388453 0.036462005 -5.8614106e-21)
(0.60818994 0.069476513 -1.0420293e-19)
(0.74543784 0.10464372 5.4149917e-20)
(0.86418 0.13880782 5.5033778e-20)
(0.96366387 0.16958749 6.7599297e-21)
(1.0439984 0.19531718 -1.1981617e-19)
(1.1061559 0.21511158 -3.0381668e-21)
(1.1518391 0.22876602 6.1104162e-20)
(1.1832615 0.23660157 7.1388842e-21)
(1.2028948 0.23930133 -2.3949844e-20)
(1.2132287 0.23775084 -8.9442094e-20)
(1.2165775 0.23289831 -6.8804454e-21)
(1.2149512 0.22564798 5.0489525e-20)
(1.2099919 0.21679126 4.2623272e-20)
(1.2029687 0.20697384 2.2051127e-20)
(1.1948134 0.19669023 -6.278066e-20)
(1.1861831 0.18628818 1.258502e-20)
(1.1775004 0.1759681 9.3146627e-20)
(-0.0014927032 0.0015486423 5.4299706e-22)
(-0.0048253281 0.0032002209 9.2784379e-22)
(-0.010873031 0.0038901331 6.5259973e-21)
(-0.017141222 0.0039594058 5.5804521e-21)
(-0.022850804 0.0036046561 -6.9981744e-21)
(-0.027583261 0.0029629346 7.113949e-21)
(-0.031054436 0.0021332323 -1.5776437e-20)
(-0.033106388 0.0011847605 -1.345958e-20)
(-0.03367296 0.00016534766 2.1894844e-20)
(-0.032742393 -0.00089203586 -1.8086219e-20)
(-0.030335631 -0.0019649523 -2.2785591e-22)
(-0.026493477 -0.0030384603 6.5627018e-21)
(-0.021267681 -0.0041028533 -8.9847536e-22)
(-0.01471489 -0.0051519275 3.7230554e-20)
(-0.006892996 -0.0061814803 1.1657946e-22)
(0.0021391898 -0.0071877196 -6.4284662e-20)
(0.012318972 -0.0081664628 1.2267939e-20)
(0.023588106 -0.0091158116 3.5749496e-20)
(0.035924034 -0.010034406 -6.4839897e-20)
(0.04924565 -0.010867497 -4.0352693e-20)
(-0.0018489606 0.0044838236 -7.2888851e-21)
(-0.0053493692 0.0092277042 3.9413484e-21)
(-0.010942558 0.011178845 -1.2056084e-20)
(-0.016357579 0.011323759 1.4539709e-20)
(-0.020938167 0.010233655 1.6398012e-20)
(-0.024327164 0.0083095561 1.9460398e-21)
(-0.026283763 0.0058412317 -5.278315e-20)
(-0.026681247 0.0030312931 -3.7349656e-21)
(-0.025474233 1.987054e-05 3.833441e-20)
(-0.022664664 -0.0030963679 -9.1934281e-21)
(-0.018282658 -0.0062515829 -3.8353788e-20)
(-0.012375203 -0.0094018731 8.3014858e-21)
(-0.0049983404 -0.012518658 3.6002902e-20)
(0.0037882378 -0.015583609 1.6591789e-20)
(0.013924866 -0.018584288 3.545826e-20)
(0.025351192 -0.021509695 -3.053135e-20)
(0.037995518 -0.024347939 -3.2359075e-20)
(0.051781423 -0.027092595 3.2913838e-20)
(0.0667573 -0.02972826 3.8457479e-20)
(0.083132964 -0.032070112 2.1032933e-20)
(-0.0024753113 0.0069424422 -5.9533323e-21)
(-0.0062042321 0.014170128 -6.9792858e-22)
(-0.010843496 0.01705325 -1.2513149e-21)
(-0.014548296 0.017112841 -6.4163028e-21)
(-0.016894468 0.015235617 1.1970262e-20)
(-0.017643571 0.012054187 1.8131314e-20)
(-0.016639112 0.0080268826 -7.9251722e-21)
(-0.013815239 0.0034746002 -3.4153902e-20)
(-0.009167866 -0.0013800508 1.1902933e-20)
(-0.0027271003 -0.0063830062 2.2684666e-20)
(0.0054571276 -0.011428972 1.0988026e-20)
(0.015323372 -0.016447446 2.8839149e-20)
(0.026804396 -0.021392339 2.7869501e-21)
(0.039831145 -0.02623415 -5.1835489e-20)
(0.054336339 -0.030952882 3.3533399e-21)
(0.070252678 -0.035531435 -3.0493162e-20)
(0.087489877 -0.03995383 -3.8585842e-20)
(0.10593346 -0.044212004 6.9395528e-20)
(0.12574136 -0.048250987 3.8549076e-20)
(0.14767077 -0.051680269 2.3504658e-21)
(-0.0032225731 0.0086730491 -8.1068304e-21)
(-0.0070631057 0.017448537 -2.5526992e-20)
(-0.010191745 0.020753723 5.1077588e-21)
(-0.011338516 0.02048014 7.4625244e-21)
(-0.010395125 0.017740179 2.6594782e-21)
(-0.0072895517 0.013348086 1.5726292e-20)
(-0.0019856858 0.0078963232 1.8215856e-20)
(0.0054937363 0.001800312 -2.9560014e-21)
(0.01509046 -0.004650561 -2.0205507e-20)
(0.026729593 -0.01125509 -4.9459922e-20)
(0.040327338 -0.017875098 6.8995577e-22)
(0.055795066 -0.024417609 6.5124395e-20)
(0.073042328 -0.030821646 -2.7099362e-20)
(0.09197828 -0.03704794 -1.8878257e-20)
(0.11251512 -0.043070636 -1.0279324e-21)
(0.13456681 -0.048869771 4.886741e-20)
(0.15801345 -0.054432298 -2.4922525e-20)
(0.18268082 -0.059759864 -7.6064282e-20)
(0.20882471 -0.064739725 6.2600573e-20)
(0.23794292 -0.068665235 4.6361217e-20)
(-0.0038956839 0.0095172939 7.3568108e-22)
(-0.0074884956 0.018682513 -1.7167566e-20)
(-0.0084574992 0.021768246 -6.0499394e-20)
(-0.0061930282 0.020847528 -1.3752254e-20)
(-0.00095507439 0.017152248 -1.9994413e-21)
(0.0071269209 0.011617242 1.1989373e-20)
(0.017939432 0.0049262419 -9.6843035e-21)
(0.031346419 -0.0024411449 -1.6078189e-20)
(0.047206205 -0.010149468 3.635533e-20)
(0.065380178 -0.017964476 7.4677989e-21)
(0.085733476 -0.025724403 -4.2586495e-20)
(0.10813298 -0.033319651 1.6328374e-20)
(0.13244684 -0.040677968 0)
(0.15854404 -0.047753483 1.8164653e-20)
(0.18629663 -0.05451766 -1.4355787e-20)
(0.21557975 -0.060952145 -2.1868282e-20)
(0.24622813 -0.067056054 1.863256e-21)
(0.27798677 -0.072861884 -4.6700036e-21)
(0.31115591 -0.07820785 5.8836068e-20)
(0.34806944 -0.081954974 -1.9431759e-20)
(-0.0042786544 0.0094197653 -9.1918185e-21)
(-0.0069767041 0.017718423 3.7358637e-20)
(-0.0050045022 0.019877341 -1.8973291e-20)
(0.0015613963 0.017964875 -4.3299065e-20)
(0.012071083 0.013223834 -3.9294271e-20)
(0.026171864 0.0066444382 -2.4241316e-20)
(0.043579069 -0.0010460504 -2.0218686e-21)
(0.064022302 -0.0093387259 9.2128632e-21)
(0.087256821 -0.017876317 3.0605255e-20)
(0.11306008 -0.026408123 1.1435338e-20)
(0.14122339 -0.034760713 -1.0617906e-20)
(0.17154645 -0.042816484 -1.6726544e-21)
(0.2038325 -0.05049832 -5.7512336e-20)
(0.2378849 -0.057758638 -1.8749571e-20)
(0.27350809 -0.064570845 2.9877983e-20)
(0.3105098 -0.070923708 -3.204362e-20)
(0.34865698 -0.076837713 -1.287647e-20)
(0.38759586 -0.082401738 3.9525084e-20)
(0.42759982 -0.087447064 6.5777759e-20)
(0.47182429 -0.090328156 5.0576811e-21)
(-0.0041555799 0.0084187427 2.0108039e-20)
(-0.0049998166 0.014622615 1.7627208e-20)
(0.00086732979 0.015161125 7.2234269e-20)
(0.012702398 0.011933718 3.6181394e-20)
(0.029469022 0.0060932818 2.9690879e-22)
(0.050581193 -0.0013788146 -6.2201584e-20)
(0.075568907 -0.0097601579 -3.6762003e-20)
(0.10401144 -0.01854809 1.6009744e-20)
(0.13553817 -0.027390579 2.1832701e-20)
(0.16981793 -0.03604073 -1.8785482e-20)
(0.20654283 -0.044328731 -6.6794827e-20)
(0.24541681 -0.052141264 4.4683284e-20)
(0.28614732 -0.059406529 2.8303824e-20)
(0.32843958 -0.066084128 -4.0248687e-20)
(0.37199634 -0.072157863 1.7603673e-20)
(0.41652319 -0.077632203 3.41799e-20)
(0.4616917 -0.082558724 1.2102162e-20)
(0.50703687 -0.087107887 -1.8893617e-20)
(0.55273926 -0.091176961 -1.628943e-20)
(0.60265604 -0.092629031 1.5719664e-20)
(-0.0033238257 0.0066251289 1.4575988e-20)
(-0.0010384068 0.0096473231 -3.5552799e-20)
(0.0098799204 0.0079703647 7.7537539e-21)
(0.028066733 0.0031894934 4.9096041e-20)
(0.052118632 -0.003720895 7.2710994e-20)
(0.081215436 -0.011846842 2.9519515e-20)
(0.11469116 -0.020516787 -8.4079882e-21)
(0.15195457 -0.029271967 -1.7949462e-20)
(0.19248677 -0.037793958 -9.4744005e-21)
(0.23581975 -0.045862764 5.0617514e-20)
(0.28151341 -0.053331691 -7.7740881e-21)
(0.32913973 -0.060108633 -2.5241067e-20)
(0.37827224 -0.066142563 -2.7852861e-20)
(0.42847957 -0.071414925 -6.8961372e-20)
(0.47932592 -0.075934236 3.2629359e-20)
(0.53038145 -0.079734847 -1.98013e-20)
(0.58120059 -0.082913864 3.7397901e-20)
(0.63121489 -0.085751736 3.0049436e-20)
(0.68048497 -0.08831237 -1.0823313e-19)
(0.73337239 -0.088132428 2.414443e-21)
(-0.0016021673 0.0042007193 2.7146197e-20)
(0.0053874687 0.003192587 -3.6739723e-20)
(0.022720984 -0.0011086131 -5.9294243e-20)
(0.048467531 -0.0075222615 -3.7455161e-20)
(0.080884108 -0.015327458 -2.8871968e-21)
(0.11891418 -0.023732324 1.9062053e-20)
(0.16168395 -0.032160604 -4.1305872e-21)
(0.20841281 -0.040234 2.5716209e-20)
(0.25840507 -0.04769929 1.2509829e-20)
(0.31102133 -0.054390777 -1.6326672e-20)
(0.36565071 -0.06020954 1.3735396e-20)
(0.4216932 -0.065107472 -3.4592008e-20)
(0.47854939 -0.069075423 1.3398325e-20)
(0.53561583 -0.072135572 2.4284016e-20)
(0.59228788 -0.074336571 -4.917877e-21)
(0.64797353 -0.075753546 3.1539351e-21)
(0.70208709 -0.076533446 -1.9219463e-21)
(0.7539663 -0.077050517 2.8626902e-20)
(0.8035649 -0.077532214 3.6797458e-21)
(0.85553633 -0.07562153 -1.0163181e-20)
(0.0011693584 0.0013421798 3.0752085e-20)
(0.014698032 -0.004218577 7.7696303e-20)
(0.039984242 -0.011268274 -6.3126182e-20)
(0.074584646 -0.019139792 -1.3438899e-20)
(0.11644131 -0.027438193 2.7888869e-20)
(0.16426164 -0.035545176 2.917098e-21)
(0.21695076 -0.043024916 -4.0868222e-20)
(0.2735142 -0.049620495 9.7545911e-21)
(0.33304685 -0.055181094 9.8180802e-21)
(0.39470121 -0.059629973 -3.6993561e-20)
(0.45765971 -0.062948801 1.7998417e-21)
(0.52112056 -0.065164268 -5.3349891e-20)
(0.58429352 -0.066336785 -5.2289896e-20)
(0.64640252 -0.066551416 9.4629655e-20)
(0.7066943 -0.065909944 7.9785043e-21)
(0.76445014 -0.06452836 -2.1517999e-20)
(0.81897834 -0.062570456 2.710599e-20)
(0.86955346 -0.060324089 -1.2144433e-21)
(0.91581316 -0.057836732 2.4082267e-20)
(0.96116395 -0.053777483 -3.0697434e-20)
(0.06506962 -0.011177693 8.4437781e-20)
(0.083504145 -0.011606654 2.0655512e-20)
(0.10351622 -0.011916045 -4.6195225e-20)
(0.12472061 -0.012018709 2.3163751e-20)
(0.14677377 -0.012010563 0)
(0.16956589 -0.011930144 0)
(0.19300787 -0.011781844 -2.8167716e-20)
(0.2169862 -0.011574768 -1.9396504e-20)
(0.24139355 -0.011321192 2.3188373e-20)
(0.26613708 -0.011030558 2.1104191e-20)
(0.29113205 -0.010710039 9.6144895e-22)
(0.31629871 -0.010365961 -1.0805963e-20)
(0.34156269 -0.010003953 9.747011e-21)
(0.3668551 -0.0096288441 1.8085877e-20)
(0.3921119 -0.0092447724 -6.2572947e-21)
(0.41727351 -0.008855319 -9.3851422e-21)
(0.44228449 -0.0084635849 -3.8282449e-21)
(0.46709341 -0.0080722461 -3.3641011e-21)
(0.49165262 -0.0076836065 4.5948635e-22)
(0.51591808 -0.007299642 1.0882868e-21)
(0.53984928 -0.0069220369 2.5626074e-21)
(0.56340903 -0.0065522129 5.3431659e-21)
(0.58656336 -0.0061913528 -4.2256111e-22)
(0.60928135 -0.005840421 -2.6495286e-21)
(0.63153499 -0.0055001817 -1.5050844e-23)
(0.65329891 -0.005171214 -4.0689118e-22)
(0.67455023 -0.0048539272 8.3627618e-22)
(0.69526823 -0.0045485744 4.7271245e-22)
(0.71543412 -0.0042552668 -1.1384494e-21)
(0.73503063 -0.0039739873 2.0984635e-23)
(0.75404177 -0.003704605 -4.297964e-22)
(0.77245236 -0.0034468905 -1.7149821e-22)
(0.79024769 -0.0032005314 -3.6610289e-22)
(0.80741314 -0.0029651504 2.4379349e-22)
(0.82393383 -0.0027403232 -4.7109163e-23)
(0.83979428 -0.0025255999 -2.0430689e-23)
(0.85497817 -0.002320526 6.9965117e-24)
(0.86946824 -0.0021246659 -2.9759297e-23)
(0.88324627 -0.0019376254 -1.3190055e-22)
(0.89629331 -0.0017590725 -1.1912451e-22)
(0.90858984 -0.0015887585 -6.0603164e-23)
(0.92011722 -0.001426525 6.3564714e-23)
(0.9308557 -0.0012723414 -4.5467649e-23)
(0.94079468 -0.001126227 -1.8358273e-22)
(0.94990476 -0.00098855219 -7.5060957e-23)
(0.95823156 -0.0008590972 6.8216268e-23)
(0.96561277 -0.00074039611 2.4849644e-23)
(0.97255745 -0.00062650084 2.5076552e-24)
(0.97757681 -0.00054484605 4.0009557e-24)
(0.98510361 -0.00039502202 1.2848182e-22)
(0.099999606 -0.032862188 -2.0736893e-20)
(0.11693368 -0.034170755 -8.6401745e-20)
(0.13595626 -0.03508449 -4.3719395e-20)
(0.15616325 -0.035372187 5.1863194e-20)
(0.17706738 -0.035345591 1.93486e-20)
(0.19864851 -0.035116572 -2.5009438e-20)
(0.22085925 -0.03469015 7.9785809e-21)
(0.2435902 -0.034091398 3.0258975e-20)
(0.26674186 -0.033356695 -1.6740677e-21)
(0.29023271 -0.032513311 -9.574521e-21)
(0.31398669 -0.031581683 -1.2121098e-20)
(0.33793035 -0.030580066 -1.0620798e-20)
(0.36199459 -0.029524811 1.8484806e-20)
(0.38611487 -0.028429975 1.2991895e-20)
(0.41023065 -0.027307632 -1.4322442e-20)
(0.43428503 -0.026168278 -5.7231849e-21)
(0.45822467 -0.025021036 2.4623941e-21)
(0.48199967 -0.023873812 6.6563511e-21)
(0.5055635 -0.022733438 6.4727739e-21)
(0.52887289 -0.021605795 -7.3685124e-21)
(0.55188774 -0.020495919 -4.3442726e-21)
(0.57457103 -0.019408076 2.5778496e-21)
(0.59688875 -0.01834583 2.0386395e-21)
(0.61880976 -0.017312105 1.3519068e-21)
(0.64030562 -0.016309229 5.0095259e-22)
(0.66135047 -0.015338982 -5.8387535e-22)
(0.68192074 -0.01440264 -8.141923e-22)
(0.701995 -0.013501014 1.4696962e-21)
(0.72155361 -0.012634489 1.0105116e-21)
(0.74057845 -0.011803068 -8.2884163e-22)
(0.75905256 -0.011006415 7.2981617e-22)
(0.77695982 -0.010243894 -1.1781382e-22)
(0.79428453 -0.0095146232 -5.4172551e-22)
(0.8110111 -0.0088175226 -5.5613821e-22)
(0.82712366 -0.0081513705 1.5358926e-22)
(0.84260577 -0.0075148651 -5.2542726e-22)
(0.85744017 -0.0069066892 4.2610812e-22)
(0.8716087 -0.0063255781 -4.0748237e-22)
(0.88509224 -0.005770388 5.9962981e-22)
(0.89787097 -0.005240158 -9.4439313e-25)
(0.90992452 -0.0047341734 1.7901385e-22)
(0.9212334 -0.0042519868 2.3948865e-22)
(0.93177698 -0.0037935312 3.0213561e-22)
(0.94154374 -0.0033588831 2.3655458e-22)
(0.95050339 -0.0029491792 2.78006e-22)
(0.95870024 -0.0025637576 5.6460619e-23)
(0.96597174 -0.0022102701 7.2888246e-23)
(0.97282234 -0.0018708198 2.859118e-23)
(0.97777329 -0.00162761 -4.61531e-24)
(0.98521686 -0.0011806538 1.013106e-22)
(0.16635249 -0.052606646 1.4874078e-20)
(0.18044559 -0.054816168 7.0001044e-21)
(0.19748529 -0.056304578 -2.2824116e-20)
(0.21575687 -0.056743095 -3.9676022e-21)
(0.23444646 -0.056708502 2.2103364e-20)
(0.25369905 -0.056375855 -1.9365787e-20)
(0.2735553 -0.055732071 -3.9990507e-20)
(0.29391096 -0.054812146 1.9994576e-20)
(0.31467806 -0.053674965 2.3889592e-20)
(0.33579562 -0.052363067 -1.4767321e-20)
(0.35720318 -0.050907512 1.1726708e-21)
(0.37883818 -0.049336581 6.8264935e-21)
(0.40064047 -0.047675991 -1.8294379e-20)
(0.42255301 -0.045947973 8.4899898e-21)
(0.44452118 -0.044171732 9.1982129e-21)
(0.46649258 -0.042364082 -3.509063e-21)
(0.48841731 -0.040539757 -1.9143756e-21)
(0.51024802 -0.038711619 -8.656226e-21)
(0.53193997 -0.036890863 7.369263e-21)
(0.55345102 -0.035087201 9.4159336e-21)
(0.57474173 -0.033309002 -4.0983227e-21)
(0.59577528 -0.031563409 -1.8740242e-21)
(0.61651746 -0.029856439 1.7476638e-22)
(0.63693664 -0.028193066 -2.0059198e-21)
(0.65700361 -0.0265773 1.0167863e-21)
(0.67669149 -0.025012249 5.211839e-22)
(0.69597556 -0.023500193 3.0821754e-21)
(0.71483298 -0.022042645 -3.1288663e-21)
(0.73324265 -0.020640411 3.468802e-21)
(0.75118483 -0.019293667 7.2720774e-22)
(0.76864089 -0.018002016 1.5898153e-21)
(0.78559297 -0.01676457 1.6184236e-22)
(0.80202363 -0.015580021 1.5554315e-21)
(0.8179155 -0.014446728 -2.1738001e-21)
(0.83325096 -0.013362811 6.4022569e-22)
(0.84801186 -0.012326245 6.901261e-22)
(0.86217926 -0.011334972 -2.1599104e-22)
(0.87573336 -0.010387012 -3.2264574e-22)
(0.88865346 -0.009480575 -3.6853728e-22)
(0.9009182 -0.008614166 3.0049869e-22)
(0.91250567 -0.0077866876 1.1583723e-23)
(0.92339485 -0.0069974762 8.8022424e-22)
(0.93356354 -0.0062464957 -3.5915337e-22)
(0.94299854 -0.0055339301 -4.5753891e-23)
(0.95166794 -0.0048617466 1.4225984e-22)
(0.95961366 -0.0042288454 -6.5336261e-23)
(0.96667273 -0.0036480953 -5.6831542e-23)
(0.97334091 -0.0030896043 3.0843743e-22)
(0.97815883 -0.0026897973 3.7398375e-24)
(0.98544026 -0.0019532012 -2.7774891e-22)
(0.25874223 -0.069276405 3.6033437e-21)
(0.26887386 -0.072394244 -1.3123755e-20)
(0.28294539 -0.074408981 6.262488e-21)
(0.29841655 -0.074971298 -1.8233108e-20)
(0.31395649 -0.074967364 -2.6542561e-21)
(0.32990905 -0.074613773 1.4498645e-20)
(0.34645259 -0.073858058 -1.7281885e-20)
(0.36348857 -0.072736562 -1.3901733e-21)
(0.38093772 -0.071326557 1.5856347e-20)
(0.39876462 -0.069682267 6.1574426e-21)
(0.41692889 -0.067842041 -7.2397252e-21)
(0.43538084 -0.065841437 -5.1742234e-21)
(0.45407064 -0.063713533 -3.7865257e-21)
(0.47294992 -0.061487314 -8.5277917e-21)
(0.49197077 -0.05918808 2.2032986e-22)
(0.51108585 -0.056838216 -2.8198824e-21)
(0.53024898 -0.054457563 2.6616151e-21)
(0.54941548 -0.052063639 -3.2929672e-21)
(0.5685424 -0.049671852 -6.3241821e-21)
(0.58758871 -0.047295696 3.3200535e-21)
(0.6065154 -0.044946917 4.9790965e-21)
(0.62528562 -0.042635636 -3.2589607e-21)
(0.6438647 -0.040370466 2.1478505e-21)
(0.66222018 -0.038158609 -1.1305765e-21)
(0.68032172 -0.036005949 -6.1291076e-21)
(0.69814105 -0.033917138 -3.0345667e-21)
(0.71565181 -0.031895679 -8.1844909e-22)
(0.73282936 -0.029944009 -3.1955934e-22)
(0.74965064 -0.02806359 -1.9941142e-21)
(0.76609382 -0.026254993 -2.0606573e-21)
(0.78213813 -0.024517993 1.276281e-22)
(0.79776346 -0.02285167 -1.9476107e-21)
(0.81295014 -0.02125451 -4.0147141e-22)
(0.82767855 -0.019724523 -8.4510594e-22)
(0.84192886 -0.018259369 -1.8547274e-22)
(0.85568073 -0.016856496 -1.3505142e-21)
(0.86891313 -0.015513285 -1.7892821e-21)
(0.8816042 -0.014227205 1.9520217e-22)
(0.89373125 -0.012995975 -6.9998817e-26)
(0.905271 -0.011817699 -7.8351731e-22)
(0.91619962 -0.010691019 3.4811389e-22)
(0.92649418 -0.0096151629 -5.7545643e-22)
(0.93613049 -0.0085902189 -1.0259935e-21)
(0.94509325 -0.0076165537 6.0439913e-22)
(0.95334845 -0.0066970483 -7.5414532e-24)
(0.96093486 -0.0058301911 2.4416272e-22)
(0.96768919 -0.0050341456 -1.0330502e-22)
(0.97409479 -0.0042671336 -2.1016896e-22)
(0.97872094 -0.0037184813 -2.6858374e-23)
(0.98576736 -0.0027045364 1.9916488e-22)
(0.37069805 -0.081855157 -3.456858e-20)
(0.37593044 -0.085907566 6.326271e-20)
(0.38606449 -0.088402231 1.2875487e-20)
(0.39792013 -0.08909928 -2.1871583e-20)
(0.40952099 -0.089215505 -5.1991777e-21)
(0.42137734 -0.088970842 9.0315633e-22)
(0.43384315 -0.088257801 -4.5900339e-21)
(0.4468318 -0.087106076 -5.8891401e-21)
(0.46026326 -0.085603025 -4.9921998e-21)
(0.47412526 -0.083809755 -1.4883569e-20)
(0.48839856 -0.081769124 2.4527131e-20)
(0.50304583 -0.079521263 9.7450464e-21)
(0.51802605 -0.077104324 -1.9006039e-20)
(0.53329828 -0.074552564 7.7979231e-21)
(0.54882038 -0.071896446 5.4014681e-21)
(0.56454909 -0.069163303 2.4910511e-21)
(0.58044105 -0.06637771 -9.3434304e-22)
(0.59645343 -0.063561676 -6.7853885e-21)
(0.61254434 -0.060734811 -2.7472004e-21)
(0.62867314 -0.057914496 -2.4053809e-21)
(0.64480067 -0.055116023 -5.2122143e-21)
(0.66088949 -0.05235272 0)
(0.67690398 -0.049636055 -2.2785892e-21)
(0.69281038 -0.046975741 4.1491057e-21)
(0.7085768 -0.044379832 7.0206496e-21)
(0.7241732 -0.041854819 -6.8149318e-22)
(0.73957124 -0.03940573 -5.0970694e-21)
(0.75474418 -0.03703623 5.6008709e-21)
(0.76966667 -0.034748726 -1.10763e-21)
(0.78431457 -0.032544479 5.2618538e-21)
(0.79866468 -0.030423717 -3.0808321e-22)
(0.81269447 -0.028385761 2.0192607e-21)
(0.82638181 -0.026429158 -1.3378935e-21)
(0.83970467 -0.024551823 9.7522298e-22)
(0.85264084 -0.0227512 -9.6741226e-22)
(0.86516771 -0.021024435 5.5853319e-22)
(0.877262 -0.019368561 7.9147114e-22)
(0.88889974 -0.017780695 6.4833799e-22)
(0.9000562 -0.016258235 -1.4474176e-21)
(0.9107061 -0.014799047 9.9219527e-22)
(0.92082367 -0.013401652 -4.3720823e-22)
(0.93038398 -0.012065286 -1.7927592e-21)
(0.93936084 -0.010790271 2.1085625e-21)
(0.94773671 -0.0095772369 3.0139094e-23)
(0.95547542 -0.0084300674 -1.9606941e-22)
(0.96261217 -0.007346873 6.9475798e-24)
(0.96898381 -0.006351158 -2.268095e-22)
(0.9750581 -0.0053894953 -3.9003778e-22)
(0.97944187 -0.0047021061 1.4589424e-22)
(0.98618891 -0.003427284 -3.3956903e-23)
(0.49539677 -0.089322171 -2.9221928e-20)
(0.49497054 -0.09442416 1.5550807e-20)
(0.50025656 -0.09742133 8.7477612e-21)
(0.50773479 -0.098362589 -1.0824705e-20)
(0.51477214 -0.09877388 1.6452228e-20)
(0.52194172 -0.098829722 1.0496167e-20)
(0.52977772 -0.098368859 -1.4168874e-20)
(0.53822353 -0.09741302 -7.8037579e-21)
(0.54718745 -0.096047565 1.5966292e-20)
(0.55666772 -0.094333265 -2.3297219e-20)
(0.56666224 -0.092315478 -1.6806269e-20)
(0.57714383 -0.090037325 2.1509771e-20)
(0.58807692 -0.087540242 8.0201718e-21)
(0.59942468 -0.084862598 -1.0624954e-20)
(0.61114821 -0.082039501 1.4608209e-21)
(0.62320634 -0.079103048 -1.0405708e-21)
(0.6355568 -0.076082551 2.1056769e-21)
(0.64815709 -0.073004674 3.7230952e-21)
(0.66096512 -0.069893511 -2.4467354e-21)
(0.67393954 -0.066770682 2.9722692e-21)
(0.68704015 -0.063655422 3.9155734e-21)
(0.70022813 -0.06056468 -4.1814022e-21)
(0.71346621 -0.057513203 3.3624212e-22)
(0.72671879 -0.054513634 -2.6993681e-21)
(0.73995196 -0.051576608 1.2645369e-20)
(0.7531335 -0.048710855 8.4139835e-21)
(0.76623281 -0.04592331 2.2214793e-21)
(0.77922076 -0.043219234 -2.090831e-21)
(0.79206959 -0.040602332 6.9260146e-21)
(0.80475268 -0.038074888 1.1903929e-20)
(0.81724435 -0.035637905 2.6394436e-21)
(0.82951963 -0.033291252 5.2737703e-21)
(0.84155395 -0.031033824 2.5842875e-21)
(0.85332293 -0.028863717 1.2614068e-21)
(0.86480211 -0.026778416 -1.099904e-22)
(0.8759667 -0.024775005 4.2182939e-21)
(0.88679139 -0.022850387 8.8241542e-22)
(0.89725026 -0.021001528 3.363191e-22)
(0.90731676 -0.019225688 3.9434441e-23)
(0.91696386 -0.017520652 1.7501659e-21)
(0.92616409 -0.015884956 -2.3081147e-24)
(0.93489081 -0.014317964 8.7299572e-22)
(0.94311608 -0.012820329 -3.5724227e-23)
(0.95082034 -0.011393024 -6.646009e-22)
(0.95796553 -0.01004101 -2.3791336e-22)
(0.96458322 -0.0087620453 -5.4290402e-22)
(0.9705112 -0.0075849889 2.4159625e-22)
(0.97619913 -0.0064450751 -1.1584656e-22)
(0.98029969 -0.0056308985 -9.0727598e-23)
(0.98669332 -0.0041150345 2.0064792e-22)
(0.62581749 -0.090843102 2.3093363e-21)
(0.61929425 -0.097149766 -2.1407465e-20)
(0.61899136 -0.10075733 -4.1249368e-21)
(0.6214577 -0.10220828 6.8790115e-21)
(0.62354379 -0.10321547 6.5714028e-21)
(0.62571125 -0.10384483 4.2181546e-21)
(0.62862166 -0.10390407 1.2679182e-20)
(0.63228261 -0.10341881 1.1049094e-20)
(0.63659203 -0.10246373 1.1427235e-20)
(0.64153833 -0.10109139 -1.5156667e-20)
(0.64712551 -0.099347474 -3.0234565e-20)
(0.65333317 -0.097277761 -7.6464825e-21)
(0.6601278 -0.094926599 2.1450864e-20)
(0.66747288 -0.092336211 1.6531097e-20)
(0.67532969 -0.089546493 -4.7901529e-21)
(0.68365695 -0.086594726 -1.7285127e-21)
(0.69241167 -0.083515498 -7.0172302e-21)
(0.70155021 -0.080340704 7.6755084e-21)
(0.71102899 -0.077099534 -2.9937881e-22)
(0.72080496 -0.073818463 -2.4856932e-21)
(0.73083594 -0.070521281 1.192185e-20)
(0.74108099 -0.067229144 -1.5371476e-21)
(0.75150056 -0.063960641 1.5630395e-21)
(0.76205669 -0.060731878 5.9127751e-22)
(0.772713 -0.057556571 -5.4320246e-21)
(0.78343475 -0.054446159 5.2226251e-21)
(0.7941888 -0.051409927 1.4345799e-21)
(0.80494347 -0.04845514 -3.9329033e-21)
(0.81566845 -0.04558719 -3.6200901e-21)
(0.82633463 -0.042809745 -8.4700645e-21)