/*--------------------------------*- C++ -*----------------------------------*\
  =========                 |
  \\      /  F ield         | OpenFOAM: The Open Source CFD Toolbox
   \\    /   O peration     | Website:  https://openfoam.org
    \\  /    A nd           | Version:  6
     \\/     M anipulation  |
\*---------------------------------------------------------------------------*/
FoamFile
{
    version     2.0;
    format      ascii;
    class       volScalarField;
    location    "348";
    object      p;
}
// * * * * * * * * * * * * * * * * * * * * * * * * * * * * * * * * * * * * * //

dimensions      [0 2 -2 0 0 0 0];

internalField   nonuniform List<scalar> 
9200
(
-0.37794899
-0.36660251
-0.35650884
-0.34755955
-0.33881986
-0.33030362
-0.32208914
-0.3141439
-0.30640058
-0.29878725
-0.29123097
-0.28366268
-0.27602423
-0.26827563
-0.2604056
-0.25244946
-0.24448354
-0.23659564
-0.22981071
-0.22841075
-0.3958097
-0.38201204
-0.36997474
-0.35950566
-0.34939394
-0.33962103
-0.33025568
-0.32123463
-0.31245838
-0.30382857
-0.29525205
-0.28664659
-0.2779485
-0.2691186
-0.2601478
-0.25106106
-0.24188823
-0.23262903
-0.22396639
-0.21806625
-0.41408737
-0.39781571
-0.38388069
-0.37196226
-0.36053383
-0.34952624
-0.33898695
-0.32881425
-0.31887447
-0.30904674
-0.29922678
-0.2893325
-0.27931084
-0.26914085
-0.25883355
-0.24842761
-0.2379618
-0.22744508
-0.21727668
-0.20857166
-0.43234797
-0.41362141
-0.39785406
-0.38454788
-0.37182299
-0.35954326
-0.34772701
-0.33623357
-0.32490303
-0.31360736
-0.30225194
-0.29077852
-0.27916842
-0.26744029
-0.25564342
-0.24384761
-0.23211943
-0.22049775
-0.20925002
-0.19911734
-0.44996156
-0.42888313
-0.41140017
-0.39678334
-0.38277169
-0.36915133
-0.35591133
-0.34288271
-0.32989983
-0.31685462
-0.3036918
-0.2904052
-0.27703358
-0.26365078
-0.25035229
-0.23724103
-0.22440706
-0.2119089
-0.19993476
-0.18899205
-0.46610364
-0.44288187
-0.42385895
-0.40802089
-0.39271591
-0.37765245
-0.36280273
-0.3479951
-0.33309234
-0.3180427
-0.3028631
-0.28762413
-0.27243568
-0.25742891
-0.24273796
-0.22848486
-0.21476426
-0.20163204
-0.18921418
-0.17784748
-0.47976909
-0.45473132
-0.43440575
-0.41744655
-0.40082797
-0.38419656
-0.36753553
-0.3507113
-0.33365955
-0.31642421
-0.29912264
-0.28191597
-0.26498438
-0.24850351
-0.23262581
-0.21746915
-0.20310922
-0.18957715
-0.17693978
-0.16539831
-0.4897941
-0.46340132
-0.44208378
-0.42412702
-0.406181
-0.38786434
-0.36921388
-0.35018631
-0.33083867
-0.31134551
-0.29194195
-0.27287929
-0.25439334
-0.23668094
-0.21988686
-0.20410091
-0.18936028
-0.17565682
-0.16299944
-0.15147539
-0.49483645
-0.46761663
-0.44560706
-0.42672652
-0.40739907
-0.38727747
-0.36651221
-0.34520747
-0.32358121
-0.30195418
-0.28067263
-0.26005545
-0.24036328
-0.22178287
-0.20442502
-0.18833284
-0.17349424
-0.15985758
-0.14737777
-0.13604455
-0.49354572
-0.46596035
-0.44342801
-0.42357972
-0.40276041
-0.38074054
-0.35784967
-0.33438533
-0.31074014
-0.2873642
-0.26467765
-0.24302146
-0.22263838
-0.20367206
-0.18617892
-0.17014678
-0.15551467
-0.1421931
-0.13009024
-0.11911096
-0.26506699
-0.26974127
-0.27224968
-0.27300083
-0.27278671
-0.2717942
-0.27010476
-0.26780592
-0.26496989
-0.26165141
-0.25789452
-0.25373672
-0.24921113
-0.24434783
-0.23917506
-0.23372173
-0.22801872
-0.22208653
-0.21592422
-0.2096173
-0.26779963
-0.27205866
-0.27426033
-0.2747928
-0.2743956
-0.27324688
-0.27142616
-0.26901731
-0.26608895
-0.26269299
-0.25887104
-0.25465852
-0.25008665
-0.24518349
-0.2399747
-0.23448817
-0.22876222
-0.22281575
-0.21654146
-0.20991341
-0.27312911
-0.27657608
-0.27817976
-0.2782845
-0.27752838
-0.2760741
-0.2739977
-0.27137574
-0.26826993
-0.26472654
-0.26078238
-0.25646864
-0.25181274
-0.24683893
-0.24156802
-0.23602502
-0.23025968
-0.22428977
-0.21781617
-0.21058113
-0.28081553
-0.28309998
-0.28383813
-0.28331415
-0.28202513
-0.28011418
-0.27765337
-0.27470942
-0.27133437
-0.26756666
-0.26343622
-0.25896814
-0.25418434
-0.24910333
-0.24373913
-0.23811158
-0.23228239
-0.22627392
-0.21954069
-0.21145513
-0.29055662
-0.29138735
-0.29102394
-0.2896827
-0.2876918
-0.28517358
-0.28219694
-0.27881728
-0.27507526
-0.27100005
-0.26661334
-0.26193197
-0.25697029
-0.25173992
-0.24624676
-0.24050228
-0.23457616
-0.22850396
-0.22148102
-0.21236502
-0.30203858
-0.30118599
-0.29951976
-0.29718921
-0.29433678
-0.29106539
-0.28744298
-0.28351393
-0.27930691
-0.27483944
-0.27012241
-0.26516337
-0.2599679
-0.25453918
-0.24887396
-0.24297241
-0.23690424
-0.23072439
-0.22339708
-0.21314383
-0.31498249
-0.31227087
-0.3091349
-0.30566402
-0.30180626
-0.29764831
-0.29326099
-0.28867732
-0.28391125
-0.27896781
-0.27384642
-0.26854334
-0.26305357
-0.25737073
-0.25148248
-0.24537719
-0.23911737
-0.23278061
-0.22516315
-0.21378128
-0.32917232
-0.32446695
-0.31972749
-0.31499324
-0.3100136
-0.30486196
-0.2996124
-0.29428571
-0.28888109
-0.28338916
-0.27779498
-0.27208055
-0.26622724
-0.26021659
-0.25402661
-0.24763674
-0.24110673
-0.23456014
-0.22674445
-0.21446557
-0.34445503
-0.33764183
-0.33118712
-0.3250902
-0.31889443
-0.31265864
-0.30646201
-0.30031262
-0.29419206
-0.28807332
-0.28192354
-0.27570629
-0.26938382
-0.26291737
-0.25626252
-0.24937139
-0.24226828
-0.23505939
-0.22648738
-0.21304988
-0.36073172
-0.35168778
-0.34340161
-0.33583742
-0.32831917
-0.32089083
-0.31363668
-0.30654976
-0.29959153
-0.29271573
-0.28587122
-0.27900483
-0.27206424
-0.26499801
-0.2577503
-0.25025668
-0.24246005
-0.23415378
-0.223687
-0.20801828
-0.20246659
-0.1935183
-0.18456506
-0.17567086
-0.166782
-0.15794017
-0.14919887
-0.14059317
-0.13215233
-0.12390497
-0.11587689
-0.10809028
-0.10056426
-0.093315209
-0.086356701
-0.079699625
-0.073352273
-0.067320449
-0.061607563
-0.056214746
-0.051140971
-0.04638319
-0.041936491
-0.037794256
-0.033948342
-0.03038927
-0.027106412
-0.024088191
-0.021322275
-0.018795765
-0.016495385
-0.014407656
-0.012519061
-0.010816198
-0.0092859262
-0.0079154933
-0.0066926661
-0.0056058303
-0.0046441688
-0.0037975854
-0.0030575237
-0.0024149802
-0.0018676845
-0.0013989945
-0.0010444927
-0.00069461479
-0.00068792274
-8.0126776e-05
-0.0017060536
0.0024523269
-0.20347662
-0.19413108
-0.18506879
-0.17618893
-0.16728205
-0.15841003
-0.14964431
-0.14101634
-0.13255293
-0.12428325
-0.11623337
-0.10842537
-0.10087837
-0.093608797
-0.086630306
-0.079953844
-0.073587767
-0.06753794
-0.061807824
-0.056398592
-0.051309249
-0.04653677
-0.042076252
-0.03792108
-0.034063105
-0.030492834
-0.027199617
-0.024171851
-0.021397173
-0.018862648
-0.016554963
-0.014460598
-0.012565993
-0.010857704
-0.0093225475
-0.0079477281
-0.0067209703
-0.0056306183
-0.0046658147
-0.0038164235
-0.0030738487
-0.0024290501
-0.0018797003
-0.0014091654
-0.0010527485
-0.00070153578
-0.00069132522
-8.5942772e-05
-0.0016914954
0.0024237396
-0.20559531
-0.19539914
-0.18611942
-0.17730824
-0.16837776
-0.15944506
-0.15063172
-0.14195973
-0.1334493
-0.12513171
-0.11703429
-0.10917899
-0.10158504
-0.094269207
-0.087245433
-0.08052488
-0.074116115
-0.068025187
-0.062255712
-0.056808983
-0.051684096
-0.046878088
-0.042386089
-0.038201494
-0.034316141
-0.030720503
-0.02740388
-0.024354604
-0.021560236
-0.019007756
-0.016683757
-0.014574622
-0.012666691
-0.010946415
-0.0094005088
-0.008016075
-0.006780738
-0.0056827446
-0.004711143
-0.0038557052
-0.003107745
-0.0024581371
-0.0019044361
-0.001430002
-0.0010696102
-0.00071554775
-0.00069831531
-9.7432509e-05
-0.0016629187
0.0023671788
-0.20866392
-0.19709105
-0.18749037
-0.17887815
-0.16995828
-0.16094889
-0.15208141
-0.14336048
-0.13479101
-0.1264094
-0.11824666
-0.1103248
-0.10266334
-0.095279906
-0.08818913
-0.081402703
-0.074929649
-0.068776424
-0.062946981
-0.057442879
-0.052263418
-0.047405783
-0.0428652
-0.038635113
-0.034707368
-0.031072407
-0.027719473
-0.024636812
-0.021811874
-0.019231517
-0.016882195
-0.01475014
-0.012821538
-0.011082684
-0.0095201293
-0.0081208194
-0.0068722222
-0.0057624319
-0.0047803486
-0.0039156005
-0.0031593601
-0.0025023688
-0.0019420013
-0.0014615983
-0.0010951582
-0.00073671372
-0.00070899198
-0.00011454805
-0.0016210713
0.002283869
-0.2124558
-0.19893631
-0.18891242
-0.18070098
-0.17187709
-0.16279368
-0.15388315
-0.1451296
-0.13650653
-0.12805755
-0.11982219
-0.11182356
-0.10408164
-0.096615481
-0.089441123
-0.082571283
-0.07601583
-0.06978196
-0.063874244
-0.058294744
-0.053043153
-0.048116953
-0.043511584
-0.039220626
-0.035235994
-0.03154814
-0.028146266
-0.025018534
-0.022152274
-0.019534195
-0.01715058
-0.014987472
-0.013030856
-0.011266817
-0.0096816969
-0.0082622265
-0.0069956639
-0.005869897
-0.0048736256
-0.0039962821
-0.0032288476
-0.002561881
-0.0019925156
-0.0015040593
-0.0011294881
-0.00076510554
-0.00072350116
-0.00013718844
-0.0015670967
0.0021756954
-0.21662367
-0.20065443
-0.19011645
-0.18254356
-0.17396188
-0.16483608
-0.15590485
-0.1471531
-0.13850315
-0.13000018
-0.12169754
-0.11362283
-0.10579699
-0.098240987
-0.090973078
-0.084007772
-0.077356354
-0.071027224
-0.065025981
-0.059355532
-0.054016246
-0.049006139
-0.044321049
-0.039954839
-0.035899606
-0.032145892
-0.028682913
-0.025498777
-0.02258071
-0.019915265
-0.017488537
-0.015286352
-0.013294458
-0.011498691
-0.0098851306
-0.008440248
-0.0071510395
-0.0060051354
-0.0049909838
-0.0040977713
-0.0033162371
-0.0026367106
-0.0020560208
-0.001557431
-0.0011726542
-0.00080076592
-0.00074199767
-0.00016521234
-0.001502443
0.0020451121
-0.22077
-0.20206384
-0.19089073
-0.1841282
-0.17601214
-0.1669491
-0.15803145
-0.1493188
-0.14068501
-0.13215944
-0.12380784
-0.11566769
-0.10776328
-0.10011791
-0.092752782
-0.085685173
-0.078928575
-0.072493206
-0.066386212
-0.06061179
-0.055171358
-0.050063765
-0.045285496
-0.040830893
-0.036692386
-0.032860723
-0.029325215
-0.026073974
-0.023094147
-0.020372148
-0.017893877
-0.015644928
-0.013610782
-0.011776989
-0.010129331
-0.0086539706
-0.0073375968
-0.0061675339
-0.0051319305
-0.0042196789
-0.0034212285
-0.0027266333
-0.0021323573
-0.0016216099
-0.0012246059
-0.00084367378
-0.00076461835
-0.00019846888
-0.0014287594
0.0018950083
-0.22463392
-0.20356017
-0.1914596
-0.18526747
-0.17781363
-0.16904538
-0.16021933
-0.15157046
-0.14299014
-0.13447969
-0.12610392
-0.11791296
-0.10993885
-0.10220841
-0.094746197
-0.087573004
-0.080705329
-0.074155831
-0.067933705
-0.062044873
-0.056492178
-0.051275615
-0.046392572
-0.041838083
-0.037605081
-0.033684653
-0.030066306
-0.026738227
-0.023687534
-0.020900527
-0.018362922
-0.016060074
-0.013977183
-0.012099487
-0.010412437
-0.0089018508
-0.0075540684
-0.0063560656
-0.0052956471
-0.0043613666
-0.0035433386
-0.0028312994
-0.0022212882
-0.001696456
-0.0012852888
-0.00089383146
-0.0007915524
-0.0002368663
-0.001347846
0.0017286739
-0.22587325
-0.20538808
-0.19251861
-0.18589766
-0.17893124
-0.17074461
-0.16219502
-0.15367527
-0.14520195
-0.13676854
-0.12842269
-0.12022225
-0.11221037
-0.10441971
-0.096878786
-0.089612487
-0.082641178
-0.075980793
-0.069643306
-0.06363703
-0.057966834
-0.052634394
-0.04763847
-0.042975188
-0.03863832
-0.034619573
-0.030908879
-0.027494677
-0.024364194
-0.021503718
-0.018898849
-0.016534744
-0.014396345
-0.012468578
-0.010736549
-0.0091857079
-0.0078020143
-0.0065720565
-0.0054832534
-0.0045237745
-0.0036833525
-0.0029513596
-0.0023233487
-0.0017823981
-0.0013550592
-0.00095146188
-0.00082318712
-0.00028011344
-0.0012618608
0.0015503779
-0.21601262
-0.20463417
-0.19363634
-0.18554896
-0.17849319
-0.17108081
-0.16313745
-0.15498358
-0.14679815
-0.1386072
-0.13043846
-0.1223494
-0.11439552
-0.10661976
-0.099057936
-0.091741614
-0.084697457
-0.07794693
-0.071506733
-0.065389219
-0.059602688
-0.054151686
-0.049037334
-0.044257667
-0.039807967
-0.035681102
-0.031867854
-0.028357253
-0.025136891
-0.02219323
-0.01951189
-0.017077918
-0.014876045
-0.012890911
-0.011107275
-0.0095102022
-0.008085238
-0.0068185441
-0.005697107
-0.0047086614
-0.003842506
-0.003087594
-0.0024389347
-0.0018794879
-0.0014337474
-0.0010160405
-0.00085933248
-0.00032655248
-0.0011733639
0.0013656227
-0.19387466
-0.19858178
-0.19330863
-0.18440441
-0.17690189
-0.1698942
-0.16239409
-0.15453707
-0.146589
-0.13861308
-0.13062887
-0.12268926
-0.11485353
-0.10716904
-0.099674765
-0.092405213
-0.085390015
-0.078653429
-0.072214672
-0.06608836
-0.060284819
-0.054810384
-0.049667742
-0.044856282
-0.040372446
-0.03621008
-0.032360785
-0.028814261
-0.025558635
-0.02258079
-0.019866662
-0.017401527
-0.015170263
-0.013157597
-0.011348316
-0.0097274684
-0.0082805473
-0.0069936295
-0.0058535895
-0.0048480344
-0.0039660847
-0.0031965788
-0.0025340633
-0.0019619347
-0.0015019269
-0.0010746793
-0.00089045851
-0.00037295282
-0.0010829359
0.0011823117
-0.18332587
-0.18914682
-0.18567395
-0.17693535
-0.16973261
-0.16347666
-0.15677702
-0.14963388
-0.14234317
-0.13497993
-0.12755389
-0.12011363
-0.11272087
-0.10542666
-0.098273558
-0.091299877
-0.084539293
-0.078020072
-0.071765269
-0.065793139
-0.060117422
-0.054747629
-0.049689375
-0.044944727
-0.040512567
-0.036388947
-0.032567451
-0.029039545
-0.02579493
-0.022821867
-0.020107498
-0.017638144
-0.01539958
-0.013377292
-0.011556706
-0.009923397
-0.0084632872
-0.0071627949
-0.0060090502
-0.0049898623
-0.0040944234
-0.0033117531
-0.0026359559
-0.002051445
-0.0015762406
-0.0011399547
-0.00092403519
-0.00042746533
-0.00098207142
0.00098467645
-0.17458776
-0.17780926
-0.17553231
-0.16851174
-0.16215942
-0.15659738
-0.15066452
-0.14425143
-0.13762475
-0.13087959
-0.12402786
-0.11711192
-0.11019227
-0.1033218
-0.096545199
-0.089903135
-0.083432205
-0.077163888
-0.071124534
-0.06533568
-0.059814288
-0.054572972
-0.049620291
-0.044961081
-0.040596797
-0.036525862
-0.032744027
-0.029244722
-0.02601941
-0.023057926
-0.0203488
-0.01787957
-0.015637064
-0.013607673
-0.01177759
-0.010133034
-0.0086604544
-0.0073466973
-0.0061792205
-0.0051460966
-0.0042366301
-0.0034400719
-0.0027500571
-0.0021521465
-0.0016602755
-0.0012139387
-0.00096305383
-0.0004888591
-0.00087372077
0.00076820386
-0.16490967
-0.16552249
-0.16369114
-0.15874665
-0.15362426
-0.14880485
-0.1436631
-0.13806172
-0.13217808
-0.12611301
-0.1198942
-0.11356206
-0.10717373
-0.10078274
-0.094435601
-0.088175002
-0.082040022
-0.076065107
-0.070279799
-0.064708917
-0.059372725
-0.054287091
-0.049463725
-0.044910465
-0.040631599
-0.036628189
-0.032898422
-0.029437956
-0.026240274
-0.023297022
-0.020598344
-0.018133198
-0.015889654
-0.013855175
-0.012016869
-0.010361728
-0.0088768411
-0.0075495783
-0.0063678041
-0.0053199193
-0.0043953909
-0.003583736
-0.0028781419
-0.0022653195
-0.0017550988
-0.0012968349
-0.0010087536
-0.00055461209
-0.00076544256
0.00054295358
-0.15434056
-0.15307349
-0.15126418
-0.14803457
-0.1442054
-0.14019083
-0.13584612
-0.13108869
-0.12600201
-0.12066913
-0.11513319
-0.10943722
-0.10363418
-0.097776481
-0.091911561
-0.086083366
-0.080332721
-0.074696472
-0.069206989
-0.063892163
-0.058775471
-0.053876054
-0.049208877
-0.044784955
-0.040611622
-0.036692828
-0.033029463
-0.029619684
-0.026459263
-0.023541923
-0.02085967
-0.018403117
-0.016161791
-0.014124422
-0.01227921
-0.010614071
-0.0091168722
-0.0077756206
-0.0065786856
-0.0055148743
-0.0045738825
-0.0037455299
-0.0030226106
-0.0023929283
-0.0018623849
-0.0013896783
-0.0010626341
-0.000624095
-0.0006632747
0.00031703012
-0.14255412
-0.14049521
-0.13880043
-0.13684514
-0.13418681
-0.13100824
-0.12745063
-0.12351784
-0.11923197
-0.11464884
-0.10981938
-0.10478826
-0.099603925
-0.094316391
-0.088972939
-0.083617738
-0.078292254
-0.073034737
-0.067879626
-0.062857311
-0.057994061
-0.05331201
-0.048829226
-0.044559851
-0.040514303
-0.036699521
-0.033119247
-0.029774325
-0.026663021
-0.023781353
-0.02112341
-0.018681679
-0.016447352
-0.014410623
-0.012560964
-0.010887386
-0.0093786759
-0.0080236107
-0.0068111766
-0.0057306795
-0.0047721257
-0.0039256829
-0.0031838353
-0.0025353895
-0.0019826494
-0.001492785
-0.0011256774
-0.00069686652
-0.00057320959
9.9086006e-05
-0.12986019
-0.12793043
-0.12658373
-0.12554052
-0.12384582
-0.1214769
-0.1186796
-0.11552546
-0.11201133
-0.10816677
-0.1040417
-0.099682516
-0.095132176
-0.090435594
-0.085638683
-0.080785086
-0.075915912
-0.071069677
-0.06628188
-0.061584592
-0.057006221
-0.05257138
-0.048300856
-0.044211659
-0.04031714
-0.036627169
-0.033148351
-0.029884285
-0.02683585
-0.024001502
-0.021377581
-0.018958626
-0.016737677
-0.014706571
-0.012856228
-0.011176914
-0.0096584897
-0.0082906372
-0.0070630813
-0.0059657293
-0.0049889932
-0.0041234405
-0.0033613555
-0.0026924354
-0.0021158478
-0.0016060829
-0.0011985589
-0.00077251127
-0.00050114751
-0.00010156886
-0.11697448
-0.1156249
-0.11476686
-0.11437947
-0.11344032
-0.11180662
-0.10972009
-0.10728311
-0.10448896
-0.10134945
-0.097906692
-0.094205002
-0.090284225
-0.086183666
-0.0819444
-0.077608337
-0.073215611
-0.068804067
-0.064409183
-0.060063743
-0.055797468
-0.051636758
-0.047604554
-0.043720292
-0.03999993
-0.036456039
-0.033097956
-0.02993198
-0.026961604
-0.024187779
-0.02160919
-0.019222548
-0.017022879
-0.015003813
-0.01315787
-0.01147672
-0.0099514452
-0.0085727663
-0.0073312722
-0.00621758
-0.0052226107
-0.0043373932
-0.0035541401
-0.0028633233
-0.0022615254
-0.0017292442
-0.0012816537
-0.00085081921
-0.0004521085
-0.00027608473
-0.10444017
-0.10375713
-0.10341497
-0.1035216
-0.10317051
-0.1021741
-0.10072917
-0.098939401
-0.096801345
-0.094317305
-0.091519609
-0.088447232
-0.085135513
-0.08161942
-0.077935444
-0.074121125
-0.070214185
-0.066251102
-0.062266501
-0.058292925
-0.054360511
-0.050496657
-0.046725778
-0.043069157
-0.039544887
-0.036167878
-0.032949925
-0.029899842
-0.027023628
-0.024324682
-0.021804042
-0.019460637
-0.017291559
-0.015292337
-0.013457203
-0.011779363
-0.010251243
-0.0088647311
-0.007611399
-0.0064826826
-0.00547012
-0.0045652697
-0.0037604124
-0.0030466927
-0.0024187032
-0.0018616099
-0.001374923
-0.00093179436
-0.00042945588
-0.00041731907
-0.092542872
-0.092445905
-0.092572169
-0.093066447
-0.093176707
-0.092715155
-0.091830861
-0.090613773
-0.089062714
-0.087175233
-0.084974572
-0.082492685
-0.079759646
-0.076805325
-0.073661755
-0.07036235
-0.066940874
-0.06343113
-0.05986613
-0.056277409
-0.052694682
-0.049145535
-0.045655123
-0.042245931
-0.03893763
-0.035746996
-0.032687908
-0.029771399
-0.027005761
-0.024396701
-0.021947523
-0.01965935
-0.017531353
-0.015561003
-0.013744322
-0.012076136
-0.010550321
-0.009160034
-0.0078979408
-0.0067563981
-0.0057276654
-0.0048039054
-0.0039776099
-0.0032405199
-0.0025858323
-0.0020021381
-0.0014778348
-0.0010155481
-0.00043431577
-0.00052096488
-0.081422961
-0.081781993
-0.082290681
-0.083087552
-0.083558651
-0.083534207
-0.083125216
-0.082403788
-0.081368327
-0.080013465
-0.078354799
-0.076416918
-0.074224132
-0.07180104
-0.06917457
-0.066373755
-0.063428504
-0.060369013
-0.057225598
-0.054028038
-0.050804913
-0.047583249
-0.044388211
-0.041242818
-0.038167713
-0.035181014
-0.03229823
-0.02953224
-0.026893334
-0.024389298
-0.022025546
-0.019805287
-0.017729721
-0.01579825
-0.014008706
-0.012357586
-0.01084028
-0.0094512994
-0.0081844889
-0.007033217
-0.0059905621
-0.0050493663
-0.0042024721
-0.0034421752
-0.0027608306
-0.0021493984
-0.0015893363
-0.0011021441
-0.00046528641
-0.00058638559
-0.071140885
-0.071827856
-0.072622908
-0.073644816
-0.074391082
-0.074713768
-0.074695749
-0.074392547
-0.073800474
-0.072911745
-0.07173563
-0.070289795
-0.068592678
-0.066663562
-0.064524186
-0.062198717
-0.059712868
-0.057093156
-0.054366557
-0.051560232
-0.048700937
-0.045814473
-0.042925339
-0.040056422
-0.037228726
-0.034461149
-0.031770335
-0.029170582
-0.026673816
-0.02428961
-0.022025262
-0.019885899
-0.017874635
-0.015992734
-0.014239814
-0.012614044
-0.011112362
-0.0097306811
-0.008464093
-0.0073070501
-0.0062535345
-0.0052971409
-0.0044311929
-0.0036485335
-0.0029411643
-0.0023015952
-0.0017078669
-0.0011914315
-0.00051854074
-0.00061690649
-0.061708556
-0.062616278
-0.06360902
-0.064784955
-0.065730959
-0.066319577
-0.066612824
-0.066652484
-0.066432415
-0.065942687
-0.065187348
-0.064177928
-0.062927298
-0.061449568
-0.059761394
-0.057882024
-0.055832632
-0.053635741
-0.0513148
-0.048893836
-0.046397094
-0.043848528
-0.041271353
-0.038687703
-0.036118333
-0.033582355
-0.031097023
-0.028677591
-0.026337212
-0.024086905
-0.021935563
-0.019890013
-0.017955107
-0.016133858
-0.014427588
-0.012836106
-0.011357887
-0.0099902673
-0.0087296236
-0.0075715463
-0.0065109903
-0.0055423711
-0.0046596108
-0.0038561233
-0.0031239631
-0.002456617
-0.0018314166
-0.001282913
-0.00058836336
-0.00061937351
-0.053111181
-0.05415551
-0.05527144
-0.056539445
-0.0576195
-0.058402328
-0.058934133
-0.059245808
-0.05932917
-0.059172595
-0.058775915
-0.058145468
-0.057289142
-0.056216263
-0.054938684
-0.053470895
-0.051829526
-0.050032884
-0.04810063
-0.046053422
-0.043912548
-0.041699551
-0.039435804
-0.037142118
-0.034838428
-0.032543492
-0.030274651
-0.028047619
-0.025876339
-0.023772885
-0.02174742
-0.01980819
-0.017961572
-0.016212155
-0.014562848
-0.013015014
-0.011568627
-0.01022243
-0.0089740979
-0.0078203912
-0.0067572894
-0.005780089
-0.0048834124
-0.0040612918
-0.0033061533
-0.0026121117
-0.0019576321
-0.0013756887
-0.00066805287
-0.00060296581
-0.04531798
-0.046434632
-0.047614509
-0.048923576
-0.050082432
-0.05099788
-0.05170406
-0.052223426
-0.052546443
-0.052660409
-0.052561931
-0.052253145
-0.051737724
-0.051020793
-0.050109869
-0.049015025
-0.047748542
-0.046324562
-0.044758835
-0.04306845
-0.0412715
-0.039386729
-0.037433192
-0.03542988
-0.033395382
-0.03134758
-0.029303372
-0.02727844
-0.025287054
-0.023341926
-0.021454116
-0.019632974
-0.017886135
-0.01621955
-0.014637545
-0.01314292
-0.011737065
-0.010420083
-0.0091909292
-0.0080475446
-0.0069869664
-0.0060054202
-0.0050983143
-0.0042603603
-0.0034845894
-0.002765578
-0.0020839613
-0.0014684924
-0.00075100327
-0.00057748389
-0.038287571
-0.039428747
-0.040627465
-0.041937836
-0.043130939
-0.044127829
-0.044953544
-0.045624126
-0.046129402
-0.046456244
-0.046598987
-0.046556554
-0.04632925
-0.04591871
-0.045328724
-0.044565448
-0.043637181
-0.04255413
-0.041328235
-0.039972971
-0.038503094
-0.036934336
-0.035283102
-0.033566158
-0.031800304
-0.030002069
-0.028187425
-0.026371536
-0.024568534
-0.022791334
-0.021051494
-0.019359114
-0.017722782
-0.016149549
-0.014644954
-0.013213067
-0.011856571
-0.01057685
-0.0093740927
-0.0082474021
-0.0071948852
-0.0062137309
-0.0053001995
-0.0044497464
-0.0036561671
-0.0029144617
-0.0022078181
-0.0015598055
-0.00083169641
-0.0005515436
-0.031972522
-0.033103926
-0.034288541
-0.03557077
-0.036763698
-0.037800972
-0.038700865
-0.039474665
-0.040112167
-0.040600409
-0.040932322
-0.041104546
-0.041114863
-0.040962179
-0.04064725
-0.040172921
-0.039544014
-0.038767182
-0.037850815
-0.036804916
-0.035640917
-0.034371451
-0.0330101
-0.031571125
-0.030069194
-0.028519089
-0.026935431
-0.02533242
-0.023723603
-0.022121665
-0.020538254
-0.01898384
-0.017467623
-0.015997464
-0.014579859
-0.013219949
-0.011921546
-0.010687196
-0.0095182408
-0.0084149008
-0.0073763388
-0.0064007213
-0.0054852052
-0.0046260482
-0.003817906
-0.003056244
-0.0023267349
-0.00164801
-0.00090633913
-0.00053118565
-0.026322778
-0.027420948
-0.02856856
-0.029802044
-0.030969405
-0.032015335
-0.032953137
-0.033790648
-0.034518104
-0.035123184
-0.035598142
-0.035938154
-0.036139269
-0.036198408
-0.036114001
-0.035886246
-0.035517069
-0.035010062
-0.034370456
-0.033605063
-0.032722163
-0.031731349
-0.03064334
-0.029469761
-0.028222921
-0.026915564
-0.025560617
-0.024170939
-0.022759087
-0.021337107
-0.019916332
-0.018507222
-0.01711923
-0.015760704
-0.014438817
-0.013159534
-0.011927604
-0.010746574
-0.0096188265
-0.0085456197
-0.0075271305
-0.0065624934
-0.005649782
-0.0047860983
-0.0039670068
-0.0031885158
-0.0024384769
-0.0017315327
-0.00097298772
-0.0005192891
-0.021287961
-0.022337945
-0.023433736
-0.024605174
-0.025729293
-0.026760393
-0.027708148
-0.028577933
-0.029360746
-0.030045242
-0.030623575
-0.031090133
-0.031439912
-0.031668526
-0.031772755
-0.031750801
-0.03160231
-0.031328366
-0.030931518
-0.030415774
-0.029786558
-0.029050618
-0.028215899
-0.027291396
-0.026286966
-0.025213141
-0.024080908
-0.02290149
-0.021686122
-0.020445847
-0.019191313
-0.017932597
-0.016679051
-0.015439175
-0.014220513
-0.013029587
-0.011871849
-0.010751661
-0.0096722917
-0.0086359288
-0.0076436901
-0.0066956398
-0.0057907606
-0.004927019
-0.004100901
-0.0033090421
-0.002541103
-0.0018089467
-0.0010311919
-0.00051588064
-0.016819258
-0.017812639
-0.018848125
-0.019950058
-0.021019624
-0.02201943
-0.022956492
-0.02383444
-0.024645223
-0.025378681
-0.026027275
-0.026585133
-0.027046751
-0.027407007
-0.027661629
-0.027807431
-0.027842372
-0.027765592
-0.027577471
-0.027279671
-0.026875142
-0.026368082
-0.025763879
-0.02506901
-0.02429092
-0.023437873
-0.022518786
-0.021543046
-0.020520319
-0.019460351
-0.018372785
-0.017266982
-0.016151855
-0.015035726
-0.013926201
-0.012830074
-0.011753247
-0.010700679
-0.0096763461
-0.008683222
-0.0077232619
-0.0067973916
-0.0059054665
-0.005046311
-0.0042173209
-0.0034158294
-0.0026329864
-0.0018790223
-0.0010813714
-0.00051909055
-0.012870475
-0.013803751
-0.014775311
-0.015804848
-0.01681368
-0.017771557
-0.018683525
-0.019551973
-0.020369881
-0.021128361
-0.021820453
-0.022440399
-0.022982611
-0.023441689
-0.023812799
-0.024091895
-0.024275787
-0.024362202
-0.024349864
-0.024238567
-0.024029214
-0.023723825
-0.023325525
-0.022838496
-0.022267908
-0.02161982
-0.020901061
-0.02011909
-0.019281844
-0.018397571
-0.017474657
-0.016521465
-0.015546173
-0.014556622
-0.013560184
-0.012563637
-0.011573075
-0.010593815
-0.009630339
-0.0086862405
-0.0077641792
-0.0068658457
-0.0059919029
-0.0051419997
-0.0043144101
-0.0035072138
-0.0027128232
-0.0019407481
-0.0011242114
-0.00052629925
-0.0093996
-0.010272804
-0.011180393
-0.012138059
-0.013083939
-0.013993899
-0.014871501
-0.015718234
-0.0165281
-0.017293485
-0.018008157
-0.018666715
-0.01926378
-0.019794006
-0.020252384
-0.020634431
-0.020936262
-0.021154663
-0.021287176
-0.021332189
-0.021288996
-0.02115784
-0.020939932
-0.02063745
-0.020253515
-0.019792134
-0.019258131
-0.018657049
-0.017995039
-0.017278731
-0.01651509
-0.015711273
-0.01487448
-0.014011814
-0.01313014
-0.012235961
-0.011335298
-0.010433595
-0.0095356245
-0.0086454127
-0.0077661709
-0.0069002336
-0.0060489803
-0.0052128254
-0.0043908736
-0.0035819733
-0.00277966
-0.0019933517
-0.0011602851
-0.00053504965
-0.0063686305
-0.0071844289
-0.0080306986
-0.0089196635
-0.0098035229
-0.010663357
-0.011501581
-0.012319007
-0.013110594
-0.013869937
-0.014591586
-0.015270636
-0.015902099
-0.016480904
-0.017002141
-0.017461213
-0.017853902
-0.018176442
-0.018425605
-0.01859879
-0.018694096
-0.018710386
-0.018647329
-0.018505431
-0.018286042
-0.017991345
-0.017624324
-0.017188708
-0.016688898
-0.016129882
-0.015517124
-0.014856446
-0.014153904
-0.013415661
-0.012647858
-0.011856486
-0.011047268
-0.010225542
-0.0093961623
-0.0085633978
-0.0077308444
-0.0069013412
-0.0060768736
-0.0052585398
-0.0044462126
-0.0036395023
-0.0028329847
-0.002036363
-0.0011899677
-0.00054352868
-0.0037453574
-0.0045079558
-0.0052972303
-0.0061223355
-0.0069472273
-0.0077574186
-0.0085544142
-0.0093384962
-0.01010548
-0.010850061
-0.011567561
-0.012253625
-0.012903746
-0.013513261
-0.014077536
-0.014592082
-0.015052613
-0.015455116
-0.015795923
-0.016071796
-0.016280008
-0.016418407
-0.016485479
-0.016480393
-0.01640304
-0.016254045
-0.016034775
-0.015747316
-0.015394438
-0.014979546
-0.014506604
-0.013980055
-0.013404721
-0.012785694
-0.012128229
-0.011437625
-0.01071911
-0.0099777219
-0.0092181989
-0.0084448699
-0.0076615481
-0.0068714305
-0.0060769845
-0.0052798936
-0.0044807213
-0.0036798059
-0.0028727035
-0.0020695914
-0.0012134592
-0.00055060969
-0.0015041103
-0.0022193115
-0.0029575434
-0.0037253353
-0.0044964064
-0.0052599831
-0.0060168315
-0.0067668019
-0.0075064476
-0.0082314294
-0.008937782
-0.009621695
-0.010279167
-0.010905998
-0.011497923
-0.0120507
-0.012560156
-0.013022243
-0.013433104
-0.01378915
-0.014087125
-0.014324185
-0.014497954
-0.014606589
-0.014648829
-0.014624032
-0.014532204
-0.014374009
-0.014150766
-0.013864428
-0.013517543
-0.013113211
-0.012655007
-0.012146906
-0.011593189
-0.010998346
-0.010366971
-0.0097036492
-0.0090128431
-0.0082987808
-0.007565339
-0.00681593
-0.0060533753
-0.0052798349
-0.0044964718
-0.0037042928
-0.0028997693
-0.0020936157
-0.0012312666
-0.00055591999
0.00037921704
-0.00029440772
-0.00098780635
-0.0017051316
-0.0024281566
-0.0031492158
-0.0038684742
-0.004585416
-0.0052972067
-0.0060003273
-0.0066914389
-0.0073672314
-0.0080241845
-0.0086585611
-0.0092664956
-0.0098440579
-0.01038729
-0.010892248
-0.011355059
-0.01177198
-0.012139465
-0.012454228
-0.012713308
-0.012914131
-0.013054568
-0.013132988
-0.013148303
-0.013099998
-0.012988154
-0.012813454
-0.012577181
-0.012281189
-0.011927869
-0.011520096
-0.011061161
-0.010554695
-0.010004576
-0.0094148345
-0.0087895406
-0.0081326941
-0.0074481042
-0.0067392694
-0.0060092425
-0.0052605482
-0.0044948477
-0.0037137359
-0.0029145179
-0.0021084267
-0.0012432059
-0.00055896322
0.0019018085
0.0012619623
0.00060537866
-7.0344672e-05
-0.00075339844
-0.0014385614
-0.0021255024
-0.0028134088
-0.0034999361
-0.0041822298
-0.0048574686
-0.0055227697
-0.0061750341
-0.0068109418
-0.0074270069
-0.0080196199
-0.0085850749
-0.0091196027
-0.0096194137
-0.010080749
-0.010499933
-0.010873434
-0.01119792
-0.011470326
-0.011687909
-0.011848309
-0.011949605
-0.01199036
-0.011969661
-0.01188715
-0.011743033
-0.011538092
-0.01127367
-0.010951648
-0.010574397
-0.010144723
-0.0096657973
-0.0091410678
-0.0085741641
-0.0079687887
-0.0073285991
-0.0066570855
-0.0059574316
-0.0052324232
-0.0044841171
-0.0037145994
-0.0029219046
-0.0021177123
-0.0012518816
-0.00056105413
0.003104426
0.0024923565
0.0018659057
0.0012242978
0.00057431754
-8.0771747e-05
-0.00074025416
-0.0014030664
-0.002067235
-0.0027304233
-0.0033902203
-0.0040440868
-0.00468927
-0.0053227995
-0.0059415179
-0.0065421067
-0.0071211055
-0.0076749377
-0.0081999435
-0.0086924199
-0.009148666
-0.0095650333
-0.0099379795
-0.010264127