/*--------------------------------*- C++ -*----------------------------------*\
  =========                 |
  \\      /  F ield         | OpenFOAM: The Open Source CFD Toolbox
   \\    /   O peration     | Website:  https://openfoam.org
    \\  /    A nd           | Version:  6
     \\/     M anipulation  |
\*---------------------------------------------------------------------------*/
FoamFile
{
    version     2.0;
    format      ascii;
    class       volVectorField;
    location    "215";
    object      U_0;
}
// * * * * * * * * * * * * * * * * * * * * * * * * * * * * * * * * * * * * * //

dimensions      [0 1 -1 0 0 0 0];

internalField   nonuniform List<vector> 
9200
(
(0.0010393463 0.0014199821 -5.9201838e-20)
(0.013676067 -0.0020583669 4.6042532e-20)
(0.038313167 -0.0058665682 -3.8501733e-20)
(0.072274438 -0.0097635054 -6.0257749e-20)
(0.11376474 -0.013490029 1.8826962e-20)
(0.16158089 -0.016605658 3.2743877e-20)
(0.21467148 -0.018817285 -1.2268006e-20)
(0.27206608 -0.019973891 9.26886e-21)
(0.33285623 -0.020011223 1.6803426e-20)
(0.39616348 -0.018929051 1.4848072e-21)
(0.46111556 -0.016779815 -2.1456335e-20)
(0.52683687 -0.01365773 2.067e-20)
(0.59245069 -0.0096879954 -4.0422135e-20)
(0.65709131 -0.0050157724 -2.1133895e-20)
(0.71992472 0.00020556688 5.904651e-21)
(0.78017502 0.0058241019 -2.5131669e-20)
(0.8371706 0.011712821 2.5217116e-20)
(0.89046876 0.017918521 2.2243208e-20)
(0.93967071 0.024573423 -2.9929995e-22)
(0.98205187 0.028293392 -1.6691951e-21)
(0.0052521805 -0.001346273 -1.7059352e-20)
(0.026962502 -0.0089890263 3.974771e-20)
(0.061670116 -0.014809764 2.3576293e-20)
(0.10629489 -0.019172268 -1.1569758e-19)
(0.15873566 -0.022213995 -1.2727087e-20)
(0.21753352 -0.023720683 7.3297079e-20)
(0.28137296 -0.023595093 -3.5476398e-20)
(0.34900601 -0.021868961 -8.3905568e-21)
(0.4192392 -0.018645519 3.4287539e-20)
(0.49090944 -0.014080835 -4.3259577e-20)
(0.56287232 -0.0083759443 -3.033848e-20)
(0.63400847 -0.001766587 7.1921427e-20)
(0.7032433 0.0054884028 3.8294041e-20)
(0.76957582 0.013118641 -6.7976541e-20)
(0.83211246 0.020852092 1.4623687e-20)
(0.89010037 0.028419715 -3.6733392e-20)
(0.94296917 0.035569683 -1.3777199e-20)
(0.9904323 0.042140895 7.0974763e-20)
(1.032356 0.047715319 2.9641914e-20)
(1.0669348 0.049139699 -8.34782e-20)
(0.010858427 -0.0040424158 3.6773455e-20)
(0.043953414 -0.015431077 2.504735e-21)
(0.090515436 -0.022552282 2.2341708e-20)
(0.1471114 -0.026497357 9.8116823e-22)
(0.21134255 -0.027886296 -4.0773933e-20)
(0.28146767 -0.026795113 1.8576404e-20)
(0.3558704 -0.023382726 1.3420298e-20)
(0.43299007 -0.017921534 -5.0327702e-20)
(0.51132477 -0.010735647 5.7261857e-20)
(0.58942613 -0.0021838771 1.4256689e-20)
(0.66590916 0.0073479088 -5.4300708e-20)
(0.73948036 0.017460266 -1.8237402e-20)
(0.80897598 0.027756565 9.0591568e-21)
(0.87340264 0.037859274 2.3444733e-20)
(0.93197362 0.047424045 -1.1362502e-20)
(0.98413367 0.056148973 2.7877718e-20)
(1.029574 0.063789173 -2.018824e-20)
(1.0682645 0.070204391 -7.0123534e-20)
(1.1003322 0.075119377 -2.3796238e-20)
(1.1249112 0.076641237 4.8659624e-20)
(0.017957214 -0.0064221633 2.4508014e-20)
(0.064776996 -0.020694799 5.1039223e-20)
(0.12485228 -0.028060847 1.9881694e-20)
(0.19446966 -0.030464065 1.2990098e-20)
(0.27094931 -0.02909484 1.7275704e-20)
(0.35224879 -0.024388977 -4.7720172e-20)
(0.43643139 -0.016825971 -2.5646856e-20)
(0.52162008 -0.0069766686 0)
(0.60602895 0.0045670337 1.3920619e-20)
(0.68798707 0.017211733 -5.8523411e-21)
(0.76597518 0.030373923 -9.7934942e-20)
(0.83867447 0.043499633 -1.5774816e-20)
(0.90501526 0.056086617 6.5103193e-20)
(0.9642157 0.067704135 4.8442442e-22)
(1.0158035 0.078007714 -1.5725561e-21)
(1.0596155 0.086746792 2.1957487e-20)
(1.0957773 0.093772227 -5.2647214e-21)
(1.12468 0.099065332 -6.1029693e-20)
(1.1468647 0.10259708 -4.5851174e-20)
(1.1622957 0.10341385 6.9520409e-20)
(0.02657942 -0.0082056881 -3.9194197e-21)
(0.089344021 -0.024033506 -5.1256298e-21)
(0.16430754 -0.030264988 5.6599408e-20)
(0.2475812 -0.029810018 1.8539326e-20)
(0.33624161 -0.024513026 -3.1955068e-20)
(0.42795126 -0.015239858 1.2163839e-20)
(0.52047262 -0.0028513613 2.6402862e-21)
(0.61166358 0.011737097 3.360917e-20)
(0.69954712 0.027640143 5.6599504e-21)
(0.78236838 0.04402877 -1.3204741e-20)
(0.85865406 0.060147725 6.0154038e-20)
(0.92726911 0.075340472 -5.8009353e-20)
(0.98745676 0.089072862 -1.3216612e-19)
(1.0388531 0.10094902 -5.5773031e-21)
(1.0814725 0.11071709 8.3150762e-20)
(1.1156655 0.11826405 0)
(1.1420548 0.12360583 1.0118948e-20)
(1.1614669 0.12689056 -1.5459771e-20)
(1.1748179 0.1282987 -8.5994629e-21)
(1.1826673 0.12744916 2.0992246e-20)
(0.036666909 -0.0090895796 -5.4309116e-21)
(0.11731511 -0.024685357 4.3578745e-21)
(0.20811868 -0.028140177 -8.7629839e-21)
(0.30515702 -0.023414954 2.8472394e-20)
(0.40533539 -0.01307559 -2.9392665e-20)
(0.50607147 0.0015226166 -1.6927023e-20)
(0.6049049 0.019095142 3.7364231e-20)
(0.6995496 0.038365256 4.7595448e-21)
(0.78800393 0.058167647 -2.4436059e-20)
(0.86863406 0.077483006 6.9867558e-20)
(0.94023973 0.095458644 5.2393745e-22)
(1.0020956 0.11143156 -8.0444316e-20)
(1.0539569 0.12494291 0)
(1.0960273 0.1357375 3.9542118e-20)
(1.1288922 0.14374843 5.5236012e-21)
(1.1534278 0.14906893 -7.75664e-20)
(1.1706991 0.15191914 -1.9586918e-20)
(1.1818623 0.15262368 -1.2467636e-20)
(1.1880592 0.15152606 -1.4709402e-20)
(1.190146 0.14858493 4.0420582e-20)
(0.048058869 -0.0087674051 -1.7277958e-20)
(0.1480831 -0.021931993 -2.2198293e-21)
(0.2551407 -0.020797834 3.0380503e-20)
(0.36546384 -0.010412792 3.7484307e-20)
(0.47590421 0.0059015894 -1.9944733e-20)
(0.58374267 0.026269308 -6.9163032e-20)
(0.68644186 0.04897721 -2.7995797e-20)
(0.78176204 0.07241779 7.8929211e-20)
(0.86790196 0.095212479 8.5778141e-21)
(0.94358916 0.11624961 -2.4873482e-20)
(1.0081258 0.13469827 1.3642211e-20)
(1.061387 0.15001555 -4.3194496e-21)
(1.1037693 0.16193659 0)
(1.1360975 0.17044428 2.7203483e-20)
(1.1595046 0.17572309 -7.9322415e-20)
(1.175302 0.17810369 -3.1475528e-20)
(1.184857 0.17800813 8.1054574e-20)
(1.1894921 0.17590945 -4.2969818e-21)
(1.1904029 0.17225559 3.5561069e-21)
(1.188508 0.16719298 2.7111604e-20)
(0.060485251 -0.006957364 -3.2414615e-20)
(0.18077773 -0.015170381 -8.162432e-20)
(0.30388929 -0.0075835265 2.5797741e-21)
(0.42642556 0.009703357 7.0161811e-20)
(0.54535149 0.032631554 6.2424376e-20)
(0.65798101 0.058820044 -7.1574521e-20)
(0.76190883 0.086176508 -2.8275092e-22)
(0.85518292 0.11285231 8.5522548e-20)
(0.93645347 0.13737837 4.882807e-20)
(1.0050415 0.1586937 -5.4218408e-20)
(1.0609356 0.17613563 -9.2334216e-20)
(1.1047243 0.18941354 -3.1589826e-21)
(1.1374759 0.19855944 4.2127866e-20)
(1.1605873 0.20385857 -6.6056278e-21)
(1.1756247 0.2057702 -1.2868786e-20)
(1.1841776 0.20484919 1.9690807e-20)
(1.1877427 0.20167897 4.3880616e-20)
(1.1876453 0.19682588 -4.3859429e-20)
(1.1849954 0.19077884 -1.0232201e-19)
(1.180625 0.1837738 2.4566888e-20)
(0.073537216 -0.0034329735 -3.497975e-20)
(0.21422687 -0.0039890255 -1.7388612e-19)
(0.35251657 0.011839376 8.2103243e-20)
(0.48562798 0.037018337 9.2767516e-20)
(0.6108538 0.066835552 5.7970567e-20)
(0.72576727 0.098481178 8.6107095e-21)
(0.82834803 0.12959696 -1.0624009e-19)
(0.91718998 0.15824269 0)
(0.99162744 0.18302814 -6.8748588e-20)
(1.0517521 0.20311206 -1.5202409e-20)
(1.0983384 0.2181486 5.4703466e-20)
(1.1327008 0.22821082 1.0973379e-20)
(1.156511 0.2336926 -4.5613853e-20)
(1.1716068 0.23519947 -4.9081361e-20)
(1.1798204 0.23344335 2.428768e-20)
(1.182845 0.22915323 4.482289e-20)
(1.1821488 0.22300986 -5.5600406e-20)
(1.178936 0.21560822 -1.0751121e-19)
(1.1741468 0.20742224 -3.1513621e-21)
(1.1684567 0.19871881 2.7046395e-20)
(0.086650447 0.001961386 -3.5448993e-21)
(0.24696019 0.011816634 8.7913242e-20)
(0.3988474 0.03749231 -1.6479246e-20)
(0.54040465 0.071218382 -8.4309149e-20)
(0.66949903 0.10778893 4.5164371e-20)
(0.78421953 0.14411543 4.9175454e-20)
(0.8831894 0.17775668 5.5356782e-21)
(0.9657787 0.2068849 -9.950249e-20)
(1.0321763 0.23038802 -2.504878e-21)
(1.0833328 0.24781553 5.0503542e-20)
(1.120807 0.25926301 5.9854755e-21)
(1.1465558 0.2652362 -1.9717208e-20)
(1.1627107 0.26650533 -7.5704627e-20)
(1.1713765 0.26396622 -6.2554016e-21)
(1.1744762 0.2585243 4.3533352e-20)
(1.1736548 0.25101089 3.7022011e-20)
(1.1702383 0.24213395 1.979344e-20)
(1.1652402 0.23245875 -5.2994838e-20)
(1.1594014 0.22240418 1.295745e-20)
(1.1532252 0.212238 8.2659087e-20)
(-0.0012932615 0.0014346598 -1.1234449e-21)
(-0.0047459603 0.0031874148 2.0646968e-21)
(-0.010771359 0.0041359041 8.7949939e-22)
(-0.017754287 0.004539536 -2.4411023e-21)
(-0.024740317 0.0045654166 -1.4114822e-21)
(-0.031299592 0.0043260385 1.5460011e-21)
(-0.037161327 0.0039035381 -6.87008e-21)
(-0.042147441 0.0033577217 -5.9573038e-21)
(-0.046157775 0.0027313812 1.1171997e-20)
(-0.049146189 0.0020548305 -9.7427481e-21)
(-0.051100653 0.0013493004 -1.9833043e-22)
(-0.052030443 0.00062942188 3.6673437e-21)
(-0.051957737 -9.4889517e-05 -6.3295591e-22)
(-0.050911881 -0.00081693042 2.2818743e-20)
(-0.048925778 -0.0015318447 3.0401118e-22)
(-0.046035341 -0.002235174 -4.088287e-20)
(-0.042281798 -0.002922268 7.5385612e-21)
(-0.037703443 -0.0035910385 2.386411e-20)
(-0.032308695 -0.0042399865 -4.3852374e-20)
(-0.026156966 -0.0048211131 -2.7739205e-20)
(-0.0016521999 0.0041808663 -5.3716026e-21)
(-0.005397481 0.0092681381 1.0865439e-20)
(-0.011218509 0.012007444 -1.0191542e-20)
(-0.017658025 0.013153764 3.9229736e-21)
(-0.023856432 0.013195413 4.8121432e-21)
(-0.029433317 0.012462724 7.1324176e-22)
(-0.034152319 0.011197014 -2.2509488e-20)
(-0.037860377 0.0095738967 -2.0370239e-21)
(-0.040474297 0.0077189871 2.0163539e-20)
(-0.041958921 0.0057212303 -5.0473597e-21)
(-0.042308949 0.0036428645 -2.1762588e-20)
(-0.041537336 0.0015267128 4.8973166e-21)
(-0.039667712 -0.00059830534 2.263542e-20)
(-0.036729082 -0.0027127608 1.030839e-20)
(-0.032752035 -0.0048026889 2.1854284e-20)
(-0.027769172 -0.0068555081 -1.9770727e-20)
(-0.021824797 -0.0088582192 -2.1672943e-20)
(-0.014966274 -0.010804224 2.1184616e-20)
(-0.0071290223 -0.012679 2.6810364e-20)
(0.001874289 -0.014317223 1.5854765e-20)
(-0.0023034292 0.0065602326 -4.3568688e-21)
(-0.0065392237 0.014480195 -5.6387546e-21)
(-0.011892131 0.018710543 3.0723944e-22)
(-0.017211099 0.02042818 1.095988e-21)
(-0.021819141 0.020400323 6.6918399e-21)
(-0.025431041 0.019151665 1.0665168e-20)
(-0.027877231 0.017066287 -3.7227634e-21)
(-0.029053268 0.014423782 -1.8896163e-20)
(-0.028909036 0.011424352 6.5413167e-21)
(-0.02743105 0.0082099049 1.2862569e-20)
(-0.024627714 0.004879776 5.8340845e-21)
(-0.020520109 0.0015022386 1.8159104e-20)
(-0.015135988 -0.0018768631 1.7295914e-21)
(-0.0085054014 -0.0052272475 -3.3864527e-20)
(-0.00065689654 -0.0085276097 1.202017e-21)
(0.008381012 -0.011759109 -2.213921e-20)
(0.01855686 -0.014904096 -2.4466301e-20)
(0.029802172 -0.017953751 4.5819708e-20)
(0.042304953 -0.020855115 2.5349345e-20)
(0.056738558 -0.023247764 1.2239276e-22)
(-0.0031290276 0.0083689699 -5.2833068e-21)
(-0.0078963987 0.018336513 -8.4815263e-21)
(-0.012438986 0.023587808 4.3593046e-21)
(-0.016026534 0.025609658 4.1463449e-21)
(-0.018235023 0.025382745 2.0105706e-21)
(-0.018912651 0.023589321 7.3209952e-21)
(-0.017984717 0.020730273 9.3124774e-21)
(-0.01541671 0.017170377 -1.3511355e-21)
(-0.011207049 0.013171314 -1.1481946e-20)
(-0.0053752357 0.0089189315 -2.9071876e-20)
(0.0020481079 0.0045434372 6.1892179e-23)
(0.011026503 0.00013431117 4.0697819e-20)
(0.021522218 -0.0042489506 -1.8383171e-20)
(0.033497841 -0.0085675843 -1.2296087e-20)
(0.0469205 -0.012795545 5.5348967e-22)
(0.06176008 -0.016911854 3.2302641e-20)
(0.077952996 -0.020901668 -1.4829542e-20)
(0.095392243 -0.024763374 -5.3339181e-20)
(0.11439843 -0.028379715 4.5765004e-20)
(0.13634535 -0.031073092 3.3013163e-20)
(-0.0039704096 0.0094657321 -6.8788992e-22)
(-0.0090916579 0.020487792 -1.2534739e-20)
(-0.012364471 0.026159086 -3.4144533e-20)
(-0.01355254 0.028143338 -5.7241618e-21)
(-0.01253324 0.027555006 -3.6222736e-21)
(-0.0093167249 0.025188064 6.3051033e-21)
(-0.0039456458 0.021627411 -4.6461961e-21)
(0.0035261265 0.017298959 -8.8070273e-21)
(0.013036818 0.012508752 2.1899709e-20)
(0.024521238 0.0074744428 5.0567076e-21)
(0.037915534 0.0023489044 -2.5290291e-20)
(0.053157439 -0.0027627836 1.1078278e-20)
(0.07018686 -0.0077908739 0)
(0.088946573 -0.012691302 1.2089575e-20)
(0.10938543 -0.017436918 -9.701617e-21)
(0.1314574 -0.022009895 -1.4337118e-20)
(0.15507406 -0.026408644 -1.5738961e-21)
(0.18006759 -0.030659419 -2.2181547e-21)
(0.2068534 -0.034576531 4.6147058e-20)
(0.23766357 -0.037019865 -1.0470124e-20)
(-0.0046450978 0.0097808622 -7.5356675e-21)
(-0.0096772508 0.02074788 2.4516398e-20)
(-0.01106438 0.026160977 -1.0499346e-20)
(-0.0090968328 0.027724444 -2.7469279e-20)
(-0.0039797213 0.026601694 -2.7548144e-20)
(0.0040961819 0.023648408 -1.4921568e-20)
(0.014954148 0.019496457 -6.9059652e-22)
(0.028436233 0.014604706 5.5499787e-21)
(0.044403144 0.0093034469 1.9615879e-20)
(0.062730493 0.003828416 7.3530851e-21)
(0.083304311 -0.0016547544 -7.186221e-21)
(0.10601897 -0.0070322377 -2.0102314e-21)
(0.13077356 -0.012229096 -3.8191708e-20)
(0.15746943 -0.017199751 -1.2693644e-20)
(0.18601199 -0.021919733 1.8750605e-20)
(0.21631176 -0.026379716 -2.1021673e-20)
(0.24823222 -0.030602221 -8.9730575e-21)
(0.28151866 -0.034670605 3.0440464e-20)
(0.31660703 -0.038364817 5.0472064e-20)
(0.35665014 -0.039964097 3.3559659e-21)
(-0.0049617684 0.0093139986 1.6783303e-20)
(-0.0091662692 0.019097709 1.4467937e-20)
(-0.007859365 0.023563366 5.1145483e-20)
(-0.0018585398 0.024328943 2.338798e-20)
(0.0082957222 0.022523783 1.8251774e-22)
(0.022221939 0.019014385 -3.9388454e-20)
(0.03959744 0.014440936 -2.4313858e-20)
(0.060147901 0.0092663599 1.0465817e-20)
(0.083639112 0.0038232288 1.4401586e-20)
(0.10986669 -0.0016512984 -1.3113711e-20)
(0.13864562 -0.0069910085 -4.4038712e-20)
(0.1698017 -0.012082846 2.9618497e-20)
(0.20316404 -0.016854157 2.0020551e-20)
(0.23855945 -0.021263993 -2.7551154e-20)
(0.27581229 -0.0252964 1.1650134e-20)
(0.3147481 -0.028957165 2.4197611e-20)
(0.35514545 -0.032303049 8.0723939e-21)
(0.39663386 -0.035506673 -1.1764211e-20)
(0.439577 -0.038392638 -1.4190296e-20)
(0.48798509 -0.038634397 5.8727615e-21)
(-0.0047307762 0.0081236732 1.1093845e-20)
(-0.0070586005 0.015671176 -2.3352718e-20)
(-0.0020293662 0.018562033 8.6200537e-21)
(0.0090325196 0.018216225 3.3587965e-20)
(0.02525636 0.01565115 5.2124334e-20)
(0.046066336 0.011695604 2.0276508e-20)
(0.070984521 0.006960953 -5.8639347e-21)
(0.099601945 0.0018829522 -1.2286284e-20)
(0.13156894 -0.003227197 -6.2057459e-21)
(0.16657567 -0.008149656 3.4240832e-20)
(0.20433424 -0.012733318 -4.5104375e-21)
(0.24456484 -0.016879184 -1.6643299e-20)
(0.28698469 -0.020528683 -1.9693571e-20)
(0.33129997 -0.023656408 -4.7443733e-20)
(0.37720457 -0.026265528 2.32387e-20)
(0.42438769 -0.028387855 -1.4095981e-20)
(0.47249972 -0.030127613 2.5993395e-20)
(0.52103616 -0.03178318 2.1040822e-20)
(0.57021393 -0.033350668 -8.5570387e-20)
(0.62470915 -0.032058828 -1.080711e-22)
(-0.003771052 0.0063146395 2.1925054e-20)
(-0.0028657665 0.010735096 -2.6165528e-20)
(0.0071421043 0.011564137 -4.5013291e-20)
(0.024450232 0.0099249903 -2.725378e-20)
(0.047870849 0.0066523068 -2.0439868e-21)
(0.076628701 0.0024906182 1.3050096e-20)
(0.11007673 -0.0020153939 -2.8337705e-21)
(0.14765206 -0.0064879022 1.8118536e-20)
(0.18886095 -0.010663501 8.8685616e-21)
(0.23325194 -0.014362418 -1.1380171e-20)
(0.28039148 -0.017468945 8.8779112e-21)
(0.32984602 -0.019916801 -2.3903264e-20)
(0.38116879 -0.021678691 8.0504769e-21)
(0.43389083 -0.022759868 1.6756388e-20)
(0.48751934 -0.023194292 -2.639514e-21)
(0.54154715 -0.023046881 1.6618985e-21)
(0.59543544 -0.022469434 -3.1957747e-22)
(0.64851782 -0.021870092 1.9590419e-20)
(0.70082238 -0.021445048 4.043401e-21)
(0.75745149 -0.018499066 -5.7334966e-22)
(-0.0019110144 0.0040273482 2.3692111e-20)
(0.0038694297 0.0046765207 5.7159956e-20)
(0.02031531 0.0031879652 -4.9244221e-20)
(0.045178283 0.00029442732 -9.9454144e-21)
(0.07696515 -0.0034241503 2.0256345e-20)
(0.11469622 -0.0073535839 2.1433717e-21)
(0.15753882 -0.011054954 -2.9815161e-20)
(0.20474831 -0.014244136 6.9848108e-21)
(0.25564949 -0.016737924 7.1097863e-21)
(0.30960472 -0.018426952 -2.6254075e-20)
(0.36598647 -0.019260092 1.2927322e-21)
(0.42415958 -0.01923186 -3.7174107e-20)
(0.48347101 -0.018372195 -3.6341007e-20)
(0.54324564 -0.016738267 6.5683464e-20)
(0.60278811 -0.014407292 5.5627472e-21)
(0.66138884 -0.011475887 -1.5188792e-20)
(0.71830784 -0.0081020332 1.9363963e-20)
(0.772699 -0.0045928529 -9.1888141e-22)
(0.82408834 -0.0009680345 2.0364575e-20)
(0.87621966 0.0043280835 -1.9554154e-20)
(-0.018836423 -0.0050997023 5.8352036e-20)
(-0.010224664 -0.0056349254 1.5783664e-20)
(-0.00022120611 -0.0060688781 -3.513955e-20)
(0.010823211 -0.0063341074 1.6790229e-20)
(0.022642448 -0.0065120445 0)
(0.035177862 -0.0066300872 0)
(0.048369634 -0.0066909704 -2.2974939e-20)
(0.062138045 -0.0067025365 -1.6502865e-20)
(0.076412682 -0.0066741708 1.9122586e-20)
(0.091134037 -0.006612662 1.8174027e-20)
(0.10624714 -0.0065232019 1.0524251e-21)
(0.12170018 -0.0064103541 -1.0317632e-20)
(0.13744486 -0.0062780771 8.3268756e-21)
(0.15343596 -0.0061297182 1.823371e-20)
(0.16963072 -0.0059681408 -5.2274143e-21)
(0.18598849 -0.0057958302 -1.0174932e-20)
(0.20247052 -0.0056149575 -4.3195859e-21)
(0.21903977 -0.0054274319 -4.4257376e-21)
(0.23566083 -0.0052349453 7.3667176e-22)
(0.25229982 -0.0050390081 1.2286035e-21)
(0.26892441 -0.0048409753 2.5666299e-21)
(0.28550382 -0.0046420667 6.6539437e-21)
(0.30200885 -0.0044433815 2.4894445e-22)
(0.31841197 -0.0042459091 -3.4514687e-21)
(0.33468734 -0.0040505371 1.5558765e-22)
(0.35081088 -0.0038580571 -5.7709759e-22)
(0.36676034 -0.003669169 1.2434357e-21)
(0.38251531 -0.0034844852 1.0522432e-21)
(0.39805727 -0.0033045343 -1.2987925e-21)
(0.4133696 -0.0031297642 -1.2218734e-22)
(0.42843756 -0.0029605471 3.5749907e-23)
(0.44324832 -0.0027971829 -3.5187562e-22)
(0.45779086 -0.0026399047 -4.0565386e-22)
(0.472056 -0.0024888837 5.5413024e-23)
(0.48603632 -0.0023442353 -1.380902e-22)
(0.49972614 -0.0022060249 -2.2343138e-22)
(0.51312144 -0.0020742745 2.5571889e-22)
(0.52621985 -0.0019489699 2.9501927e-22)
(0.5390206 -0.0018300694 -8.2711585e-24)
(0.55152479 -0.0017175074 -1.551736e-22)
(0.56373438 -0.0016112231 3.0406573e-23)
(0.57565596 -0.001511116 -4.014469e-23)
(0.58728971 -0.0014172572 9.2203413e-23)
(0.59866465 -0.0013293105 2.1977204e-23)
(0.60973513 -0.0012485592 -1.1394495e-22)
(0.62069317 -0.0011717941 -6.7612601e-24)
(0.63106116 -0.0011112454 -7.2388348e-26)
(0.64234969 -0.0010339489 -3.5611697e-24)
(0.65042764 -0.0010508065 2.9453699e-23)
(0.66700853 -0.00087556092 3.6050705e-22)
(0.010445867 -0.015017609 -1.2746814e-20)
(0.018179696 -0.016641011 -6.3302322e-20)
(0.027779213 -0.017915413 -3.0541936e-20)
(0.038385143 -0.018672071 3.8476008e-20)
(0.049620984 -0.019183588 1.466261e-20)
(0.061506625 -0.019529432 -1.8204925e-20)
(0.074012816 -0.019709865 4.6721999e-21)
(0.087062664 -0.019746491 2.5447184e-20)
(0.10059313 -0.01966728 9.1993328e-23)
(0.114554 -0.019491699 -7.6591235e-21)
(0.12889716 -0.019234358 -1.3021015e-20)
(0.143576 -0.01890831 -8.5245287e-21)
(0.15854663 -0.018524971 1.7772332e-20)
(0.17376753 -0.018093999 8.9295428e-21)
(0.18919896 -0.017623677 -1.6522435e-20)
(0.20480274 -0.01712123 -6.0390574e-21)
(0.22054211 -0.016592995 3.2145044e-21)
(0.23638172 -0.016044568 8.3716314e-21)
(0.2522875 -0.015480929 6.983226e-21)
(0.2682267 -0.014906539 -6.9727148e-21)
(0.28416789 -0.014325411 -3.1685455e-21)
(0.30008106 -0.013741172 1.3605335e-21)
(0.31593761 -0.013157096 3.8682781e-22)
(0.33171049 -0.012576138 1.211395e-21)
(0.34737424 -0.012000956 1.8368352e-22)
(0.36290506 -0.011433921 -3.2661619e-22)
(0.3782809 -0.010877138 -7.2434849e-22)
(0.39348147 -0.010332451 9.7156558e-22)
(0.40848827 -0.0098014524 8.2482925e-22)
(0.42328466 -0.0092854992 -1.5147348e-22)
(0.43785581 -0.0087857198 5.5306058e-22)
(0.45218872 -0.0083030287 -2.3880908e-22)
(0.46627218 -0.0078381404 -3.7069878e-22)
(0.48009675 -0.0073915852 -6.0999067e-22)
(0.4936547 -0.0069637262 4.4171718e-22)
(0.50694002 -0.0065547772 -1.5477131e-23)
(0.51994829 -0.0061648229 1.6124722e-22)
(0.53267677 -0.0057938383 -4.4174739e-22)
(0.54512422 -0.0054417167 3.7189489e-22)
(0.5572913 -0.0051082797 6.7175215e-23)
(0.5691795 -0.0047933626 -1.0285398e-22)
(0.5807949 -0.0044966814 1.761368e-22)
(0.59213725 -0.0042184651 2.3339631e-22)
(0.60323481 -0.003957724 1.6926467e-22)
(0.61404212 -0.0037183037 1.6767187e-22)
(0.62474832 -0.0034906487 -2.6097991e-23)
(0.63488219 -0.0033112081 8.4043915e-23)
(0.64593138 -0.003081866 7.6291831e-23)
(0.65382979 -0.0031323547 -1.9466512e-22)
(0.6700917 -0.0026124387 -3.8026519e-23)
(0.067614681 -0.024029144 9.4528285e-21)
(0.073589662 -0.026749047 3.2950986e-21)
(0.082265498 -0.028805566 -1.2162197e-20)
(0.09194781 -0.029968501 -1.2257888e-21)
(0.1019832 -0.030767861 1.4970585e-20)
(0.11254632 -0.031330888 -1.488712e-20)
(0.12367595 -0.031636067 -2.9842265e-20)
(0.1352968 -0.031713002 1.4493519e-20)
(0.14735694 -0.031607632 1.8181962e-20)
(0.15982341 -0.031350051 -1.1598514e-20)
(0.17266058 -0.030961815 1.019055e-21)
(0.1858308 -0.030462749 8.6860138e-21)
(0.19929782 -0.029870547 -1.5253538e-20)
(0.21302655 -0.029200234 2.9095139e-21)
(0.22698241 -0.028464755 7.519434e-21)
(0.24113139 -0.027675499 3.1598769e-23)
(0.25544013 -0.026842553 2.6556439e-22)
(0.26987604 -0.025974891 -7.4150841e-21)
(0.2844073 -0.025080559 3.8616815e-21)
(0.29900297 -0.024166814 8.4749029e-21)
(0.31363312 -0.023240228 -3.8351752e-21)
(0.3282689 -0.022306768 -2.2130361e-21)
(0.3428827 -0.02137185 1.0124438e-21)
(0.35744819 -0.020440381 -1.7155321e-21)
(0.37194048 -0.019516788 1.3532252e-21)
(0.38633618 -0.018605041 7.1845906e-22)
(0.40061348 -0.01770867 1.5268384e-21)
(0.41475222 -0.016830779 -1.9526612e-21)
(0.4287339 -0.015974064 2.2235675e-21)
(0.44254175 -0.015140828 5.5188519e-22)
(0.45616072 -0.014333 4.0322548e-22)
(0.46957748 -0.013552154 3.2134462e-22)
(0.48278039 -0.012799535 8.7324967e-22)
(0.49575951 -0.01207608 -1.3708599e-21)
(0.50850652 -0.011382451 3.7065545e-22)
(0.52101476 -0.010719061 1.0941275e-22)
(0.53327909 -0.010086111 -4.5172212e-23)
(0.54529601 -0.0094836145 8.6732758e-23)
(0.55706345 -0.0089114531 -3.7184939e-22)
(0.56858124 -0.0083693861 1.8293483e-22)
(0.57984997 -0.0078571945 -3.4987112e-23)
(0.59087479 -0.0073744599 3.9004154e-22)
(0.60165462 -0.0069216118 -1.8544416e-22)
(0.61221635 -0.0064970615 4.7323452e-23)
(0.62251485 -0.0061071978 4.3603547e-23)
(0.63273384 -0.0057363334 -7.3599424e-23)
(0.64241425 -0.0054444083 -1.2082487e-22)
(0.65299976 -0.0050705022 3.8809181e-22)
(0.6605498 -0.0051542477 1.7270555e-22)
(0.67619344 -0.0043070153 -8.3039783e-22)
(0.15021527 -0.031460426 1.5010128e-21)
(0.15354688 -0.035257391 -1.156661e-20)
(0.16061621 -0.038010916 6.6441985e-21)
(0.16880589 -0.039479094 -1.332474e-20)
(0.17698223 -0.040520685 -1.9758304e-21)
(0.18552345 -0.041302276 9.1599391e-21)
(0.19458418 -0.041757232 -9.7662168e-21)
(0.2040869 -0.041913705 1.5662781e-21)
(0.21398766 -0.041833325 1.2903798e-20)
(0.22427597 -0.04155433 3.4031982e-21)
(0.23493252 -0.041102039 -6.2096945e-21)
(0.24593019 -0.040500444 -2.8638092e-21)
(0.25724157 -0.039771743 -5.840905e-21)
(0.2688391 -0.03893505 -6.4553125e-21)
(0.28069421 -0.03800697 3.2356926e-21)
(0.29277761 -0.037002297 8.4621119e-22)
(0.30505972 -0.03593432 1.3679575e-21)
(0.31751097 -0.034815017 -3.3850413e-21)
(0.33010193 -0.033655244 -4.2428848e-21)
(0.3428036 -0.03246489 2.3616502e-21)
(0.35558755 -0.031252992 3.2251347e-21)
(0.36842611 -0.030027811 -1.5636189e-21)
(0.38129257 -0.028796897 1.5867263e-21)
(0.39416131 -0.027567127 -3.9123971e-22)
(0.40700789 -0.026344739 -3.9196396e-21)
(0.41980921 -0.025135348 -3.033281e-21)
(0.43254361 -0.023943972 -1.9026272e-22)
(0.44519087 -0.022775045 4.2858932e-22)
(0.45773235 -0.021632437 -2.2106029e-21)
(0.47015097 -0.020519473 -8.5497135e-22)
(0.48243126 -0.019438962 2.283765e-22)
(0.49455934 -0.018393217 -1.2498679e-21)
(0.50652293 -0.017384094 6.2630543e-24)
(0.51831133 -0.016413023 -4.2420861e-22)
(0.52991539 -0.015481044 -4.7193601e-22)
(0.54132752 -0.014588856 -5.1995658e-22)
(0.55254159 -0.013736854 -8.413306e-22)
(0.56355303 -0.012925176 -5.449631e-23)
(0.57435867 -0.012153771 -3.916043e-24)
(0.58495716 -0.011422415 -5.1972305e-22)
(0.59534791 -0.010730912 -9.1607087e-23)
(0.60553478 -0.010078785 -3.3239349e-22)
(0.6155156 -0.0094667263 -4.3759904e-22)
(0.62531534 -0.0088926385 3.784172e-22)
(0.63488942 -0.0083654061 1.4820976e-23)
(0.64441387 -0.0078635833 1.8237588e-22)
(0.65344713 -0.0074693422 -1.3246705e-22)
(0.66336973 -0.0069629538 -2.6691089e-22)
(0.6704218 -0.0070791544 -4.4691838e-23)
(0.68517872 -0.0059326896 4.6229537e-22)
(0.25468563 -0.03655275 -2.0900308e-20)
(0.25447017 -0.041393501 4.7585954e-20)
(0.25907329 -0.044745648 1.0348097e-20)
(0.26508409 -0.046442033 -1.5765314e-20)
(0.27070928 -0.047714304 -2.0227959e-21)
(0.2765199 -0.048747764 2.6232236e-21)
(0.28283544 -0.049413706 -1.6608187e-21)
(0.28957685 -0.049728087 -4.6861416e-21)
(0.29669652 -0.049761418 -4.015916e-21)
(0.3042054 -0.04955704 -1.2207635e-20)
(0.31210211 -0.049141674 1.7897751e-20)
(0.3203693 -0.048540789 6.5219893e-21)
(0.32898692 -0.047778952 -1.6780522e-20)
(0.33793394 -0.046878006 1.0317574e-20)
(0.34718699 -0.045857287 8.3849912e-21)
(0.35672066 -0.0447343 -8.7923744e-22)
(0.36650835 -0.043525054 -3.122223e-21)
(0.37652279 -0.042244235 -3.8197303e-21)
(0.38673631 -0.040905346 -1.3892572e-21)
(0.3971212 -0.039520839 -1.2304186e-21)
(0.40764998 -0.038102208 -3.0257594e-21)
(0.41829568 -0.036660056 0)
(0.42903202 -0.035204142 -1.3451906e-21)
(0.43983362 -0.033743409 3.93095e-21)
(0.45067613 -0.032286015 5.4052648e-21)
(0.46153637 -0.030839342 -9.4112543e-22)
(0.47239247 -0.029410015 -2.9274422e-21)
(0.48322387 -0.028003922 3.0258368e-21)
(0.49401146 -0.026626231 2.5447485e-22)
(0.5047376 -0.025281414 3.4352434e-21)
(0.51538611 -0.023973277 -5.3459731e-22)
(0.52594234 -0.022704994 1.7173459e-21)
(0.53639311 -0.02147915 -7.9964311e-22)
(0.54672676 -0.020297778 2.9094096e-22)
(0.55693307 -0.019162415 -4.3403891e-22)
(0.56700329 -0.018074151 5.623159e-22)
(0.57693012 -0.017033685 4.5709818e-22)
(0.58670771 -0.016041388 3.825554e-22)
(0.59633157 -0.015097374 -9.5936069e-22)
(0.60579897 -0.01420154 6.8355329e-22)
(0.61510796 -0.013353808 -3.6957304e-22)
(0.62426089 -0.012553736 -1.1033166e-21)
(0.63325432 -0.011802357 1.4078143e-21)
(0.64211098 -0.011097176 -6.2005708e-23)
(0.65078704 -0.010449499 -1.5815953e-22)
(0.65944899 -0.0098326241 -7.824441e-24)
(0.6676775 -0.0093492396 -1.2621549e-22)
(0.67677334 -0.0087261993 -4.6582365e-22)
(0.6832052 -0.0088736384 8.7882833e-22)
(0.69685064 -0.0074648956 -4.4315659e-23)
(0.37635126 -0.038368157 -1.7495097e-20)
(0.37170973 -0.044270219 1.2832048e-20)
(0.37286686 -0.048161601 2.9754579e-21)
(0.37591042 -0.050098838 -7.63537e-21)
(0.37830523 -0.051669958 1.2055978e-20)
(0.38072289 -0.053042359 7.7914108e-21)
(0.38367596 -0.054030026 -1.2647694e-20)
(0.38710053 -0.054633088 -6.067976e-21)
(0.39092919 -0.054917989 1.2697336e-20)
(0.39518238 -0.054927118 -1.5304973e-20)
(0.3998742 -0.054687498 -1.4063188e-20)
(0.40499501 -0.054224636 1.4129632e-20)
(0.41052856 -0.053563642 6.8193833e-21)
(0.41645712 -0.052727931 -4.2037644e-21)
(0.42276008 -0.051738999 -1.8545608e-21)
(0.42941397 -0.050616731 -4.058171e-21)
(0.43639341 -0.049379683 5.3047593e-21)
(0.44367189 -0.048045209 3.6682086e-21)
(0.45122217 -0.04662953 -3.2408294e-21)
(0.45901671 -0.045147796 3.1379485e-21)
(0.46702799 -0.04361414 2.7666796e-21)
(0.47522883 -0.042041707 -3.2111126e-21)
(0.4835926 -0.040442682 3.705656e-22)
(0.49209347 -0.038828298 -3.2571641e-21)
(0.50070655 -0.037208846 7.2454131e-21)
(0.50940804 -0.035593687 6.1080588e-21)
(0.51817534 -0.033991261 8.0973155e-22)
(0.52698713 -0.032409103 -1.7683229e-21)
(0.53582344 -0.030853863 3.7021764e-21)
(0.5446657 -0.029331337 7.1885181e-21)
(0.55349674 -0.027846497 2.3049306e-21)
(0.56230085 -0.026403537 3.3164859e-21)
(0.57106374 -0.025005919 1.9956205e-21)
(0.57977253 -0.023656429 7.4557922e-22)
(0.5884158 -0.022357234 -2.6374548e-22)
(0.59698349 -0.021109949 2.7203118e-21)
(0.60546695 -0.019915707 6.1992172e-22)
(0.61385895 -0.018775226 2.9487764e-22)
(0.62215359 -0.017688911 5.6232464e-23)
(0.63034667 -0.016656885 9.8966524e-22)
(0.63843479 -0.015679296 4.7020072e-23)
(0.64641869 -0.014755842 4.4247427e-22)
(0.65429364 -0.013887976 -1.2621794e-22)
(0.66207991 -0.013072932 -2.7734832e-22)
(0.66973476 -0.012324336 -1.5218635e-22)
(0.67741365 -0.011610821 -4.22079e-22)
(0.68472347 -0.011053522 1.6139317e-22)
(0.69287168 -0.010332316 -1.2723613e-22)
(0.69859452 -0.010509416 -5.0126335e-22)
(0.71095693 -0.0088817483 2.4586929e-22)
(0.50927426 -0.035974265 3.6471426e-21)
(0.49953034 -0.042960645 -1.89583e-20)
(0.4962755 -0.047383441 -2.3083845e-21)
(0.49555586 -0.049736745 5.4869471e-21)
(0.49416946 -0.051818008 3.0528092e-21)
(0.49269566 -0.053705373 -4.9892733e-23)
(0.49181221 -0.05518761 6.1896642e-21)
(0.49151442 -0.056265358 7.6251008e-21)
(0.49171158 -0.05699049 9.8580356e-21)
(0.49241063 -0.057395529 -1.125004e-20)
(0.49363095 -0.057506255 -2.157942e-20)
(0.49536768 -0.057348369 -3.9353451e-21)
(0.49760457 -0.056947082 1.5938141e-20)
(0.50032291 -0.056326958 1.2808956e-20)
(0.50350155 -0.055511681 -5.906694e-21)
(0.50711641 -0.054523792 1.3817044e-21)
(0.51114128 -0.053384728 -3.660083e-21)
(0.51554863 -0.052114882 2.2443739e-21)
(0.52031017 -0.050733588 -2.9123018e-22)
(0.52539722 -0.049259104 -1.8654092e-21)
(0.53078113 -0.047708599 7.826587e-21)
(0.53643352 -0.046098147 -2.9308777e-22)
(0.54232658 -0.044442725 4.1818114e-22)
(0.54843326 -0.042756198 -6.5646641e-22)
(0.55472747 -0.041051317 -4.3029372e-21)
(0.56118417 -0.03933972 4.2085149e-21)
(0.56777951 -0.03763194 1.9031214e-21)
(0.57449094 -0.035937415 -3.3081911e-21)
(0.5812972 -0.034264518 -4.1116424e-21)