/*--------------------------------*- C++ -*----------------------------------*\
  =========                 |
  \\      /  F ield         | OpenFOAM: The Open Source CFD Toolbox
   \\    /   O peration     | Website:  https://openfoam.org
    \\  /    A nd           | Version:  6
     \\/     M anipulation  |
\*---------------------------------------------------------------------------*/
FoamFile
{
    version     2.0;
    format      ascii;
    class       volSymmTensorField;
    location    "215";
    object      UPrime2Mean;
}
// * * * * * * * * * * * * * * * * * * * * * * * * * * * * * * * * * * * * * //

dimensions      [0 2 -2 0 0 0 0];

internalField   nonuniform List<symmTensor> 
9200
(
(9.2220754e-05 -7.1583733e-05 3.3438693e-22 5.7447905e-05 -1.787781e-22 5.4103337e-39)
(0.0005687116 -0.00045531416 8.5750191e-22 0.00036592719 -6.3989914e-22 5.8857359e-39)
(0.0011501841 -0.00089198108 1.0420384e-22 0.00069578578 -7.8869123e-23 3.2269778e-39)
(0.0018138213 -0.0013136379 -1.2928681e-21 0.00096212119 9.0876711e-22 6.4333596e-39)
(0.0024686192 -0.0016885766 6.176694e-23 0.001175115 -5.1134375e-23 9.4324877e-40)
(0.0030692297 -0.0019999324 5.450535e-22 0.0013345193 -3.6150913e-22 1.4851404e-40)
(0.0035842007 -0.0022417424 -1.1822293e-22 0.0014458091 8.1582033e-23 4.2742461e-40)
(0.003988113 -0.0024143244 1.074326e-22 0.0015181838 -7.2091785e-23 2.8787457e-40)
(0.0042632967 -0.0025210279 5.2917186e-22 0.0015604894 -3.2080959e-22 8.2134615e-40)
(0.0044004938 -0.0025667954 4.1183484e-23 0.0015802506 -2.5103592e-23 2.3430853e-42)
(0.004398936 -0.0025574889 -5.7162934e-22 0.0015836817 3.5085566e-22 4.4113099e-40)
(0.0042662794 -0.0024994723 4.7918081e-22 0.001575761 -3.0504975e-22 6.0654954e-41)
(0.0040180317 -0.002399345 -8.5493578e-22 0.0015603438 5.7513027e-22 9.4459296e-40)
(0.0036762714 -0.0022637814 -4.3439186e-22 0.0015403203 2.9799107e-22 6.0698276e-41)
(0.0032676959 -0.0020994261 1.128367e-22 0.0015177888 -8.344317e-23 7.7310391e-42)
(0.0028211756 -0.0019128027 -4.2600525e-22 0.0014942213 3.3242528e-22 8.1451982e-41)
(0.0023650094 -0.0017102299 3.7494388e-22 0.0014706995 -3.1707261e-22 9.8688492e-41)
(0.0019241837 -0.0014978484 2.7973119e-22 0.0014486842 -2.4765458e-22 4.0087386e-40)
(0.0015198759 -0.0012813415 -9.3766547e-24 0.0014301071 2.0242676e-23 7.3793345e-41)
(0.0011753968 -0.0010646882 -5.1394548e-24 0.0014008036 1.7889465e-23 9.1469562e-41)
(0.00012170663 -8.1356015e-05 3.4886313e-23 5.584863e-05 -1.337117e-23 9.5164255e-41)
(0.00072542657 -0.00050285117 9.0825203e-22 0.00034963997 -5.9080829e-22 6.2782594e-39)
(0.0014426297 -0.00097055747 -2.9439475e-22 0.00065667691 1.9745848e-22 3.4102767e-39)
(0.0022121722 -0.0014032734 -2.3207925e-21 0.00090015112 1.4502861e-21 1.4886786e-38)
(0.0029284161 -0.0017714912 -8.0540137e-23 0.0010907556 5.1043176e-23 1.8782169e-40)
(0.0035387931 -0.0020603742 1.7970226e-21 0.0012301318 -1.0598653e-21 4.9262586e-39)
(0.0040107969 -0.0022673939 -7.3942634e-22 0.0013253997 4.3175319e-22 1.6894941e-40)
(0.0043236053 -0.0023967869 -2.2350053e-22 0.0013865379 1.2939178e-22 6.0558996e-41)
(0.0044686147 -0.0024555835 8.5036e-22 0.0014226446 -4.9544637e-22 4.6277122e-40)
(0.0044491175 -0.0024519411 -1.033147e-21 0.0014411446 6.1206396e-22 5.3150411e-40)
(0.0042792791 -0.0023943821 -7.3453595e-22 0.0014478545 4.4621433e-22 6.5621563e-40)
(0.0039826012 -0.002291354 1.5904503e-21 0.0014471038 -1.0053699e-21 3.3376614e-39)
(0.0035896023 -0.0021510063 7.4255029e-22 0.0014418949 -4.9984797e-22 2.341754e-40)
(0.0031347662 -0.0019811154 -1.1735431e-21 0.0014340936 8.4390023e-22 1.1560191e-39)
(0.0026531106 -0.0017890796 2.113587e-22 0.0014246149 -1.6394488e-22 9.6278576e-41)
(0.0021768516 -0.0015819287 -4.7089577e-22 0.0014135856 4.0954669e-22 2.5691462e-40)
(0.0017325906 -0.001366322 -1.9505843e-22 0.0014005286 2.0001708e-22 8.0799812e-41)
(0.0013393372 -0.0011484155 6.0136762e-22 0.0013846074 -6.7142403e-22 1.3066603e-39)
(0.0010085801 -0.00093317339 2.8608779e-22 0.0013633174 -3.8087651e-22 2.4856828e-40)
(0.00074808963 -0.00072552713 -1.2366841e-22 0.0013238481 1.5377542e-22 1.8693083e-39)
(0.00015500915 -8.8299968e-05 -2.9295013e-22 5.1428462e-05 1.2471718e-22 2.4465716e-39)
(0.0008925963 -0.00053055341 -4.884444e-22 0.00031619016 2.7135109e-22 2.55047e-39)
(0.0017432309 -0.0010084812 -5.5690131e-22 0.00058679206 3.244498e-22 6.3751349e-39)
(0.0026022399 -0.0014328791 1.8587863e-23 0.0007982218 -1.0216599e-23 6.9194381e-43)
(0.0033517143 -0.0017780929 2.1893907e-23 0.00096134954 -1.0317294e-23 4.5804543e-39)
(0.0039357579 -0.0020329571 6.2985793e-22 0.0010796327 -3.3579819e-22 1.2809121e-39)
(0.0043264429 -0.0021992895 6.0932438e-23 0.0011612068 -3.0451254e-23 5.3026313e-40)
(0.0045140248 -0.0022853916 -1.071506e-21 0.001215963 5.7541223e-22 3.3806882e-40)
(0.004505323 -0.0023015808 1.2707127e-21 0.0012523747 -6.9959123e-22 6.3893643e-40)
(0.0043214445 -0.0022584481 4.1906548e-22 0.0012769406 -2.4214588e-22 7.0159037e-40)
(0.0039946883 -0.0021661634 -1.1557164e-21 0.0012943342 6.9764519e-22 1.4498413e-39)
(0.0035647728 -0.0020341955 -3.6339782e-22 0.0013075993 2.3509418e-22 4.7371015e-40)
(0.0030744581 -0.0018713033 1.3153349e-22 0.0013183809 -9.1410241e-23 1.2829417e-39)
(0.0025650336 -0.0016856685 3.1609855e-22 0.0013271827 -2.4462037e-22 1.846351e-40)
(0.0020723332 -0.001485043 -1.1103581e-22 0.0013336264 9.6022439e-23 1.4118189e-40)
(0.0016238744 -0.0012768247 2.5883984e-22 0.0013367101 -2.5845586e-22 1.119133e-40)
(0.0012374695 -0.0010680287 -1.7874653e-22 0.0013350614 2.1018472e-22 4.2989777e-41)
(0.00092131985 -0.00086510173 -3.6541337e-22 0.0013270941 5.05263e-22 1.046755e-39)
(0.00067550923 -0.00067346311 -1.2512307e-23 0.0013107284 1.3362475e-23 9.4123313e-40)
(0.000495039 -0.00049813336 1.2723e-22 0.0012815757 -2.7513548e-22 1.0761779e-40)
(0.0001910107 -9.1390378e-05 -2.3270605e-22 4.4581649e-05 8.5757315e-23 1.2151323e-39)
(0.0010616426 -0.00053378819 3.5667061e-22 0.00026904127 -1.7498012e-22 2.2676179e-40)
(0.0020339025 -0.00099923175 3.1648152e-22 0.00049394049 -1.5608432e-22 2.6248305e-40)
(0.0029574484 -0.0013969641 6.9060906e-22 0.00066832444 -3.2973621e-22 2.8312018e-39)
(0.0037064216 -0.0017065879 6.0771326e-22 0.00080273118 -2.8873104e-22 1.2594515e-39)
(0.0042275978 -0.0019217046 -1.0690826e-21 0.00090190212 5.0830992e-22 9.6175476e-40)
(0.0045047137 -0.0020484646 -5.9862351e-22 0.0009740318 2.8975878e-22 2.7375652e-40)
(0.0045459029 -0.0020983364 0 0.0010279239 0 0)
(0.0043786879 -0.002083564 6.5517049e-22 0.0010705442 -3.5613672e-22 3.5285944e-39)
(0.0040446954 -0.0020156522 -2.8495136e-22 0.0011067279 1.681796e-22 1.3367169e-39)
(0.0035937783 -0.0019049994 -1.6741799e-21 0.0011394195 9.9997008e-22 1.1835777e-39)
(0.0030779195 -0.0017609807 -2.1473434e-22 0.0011699458 1.3547098e-22 2.388686e-40)
(0.002545466 -0.0015922432 8.2764525e-22 0.0011983241 -6.1716416e-22 1.6082827e-39)
(0.0020364797 -0.0014070023 4.6565023e-23 0.0012236017 -3.0469086e-23 6.6497393e-40)
(0.0015798604 -0.0012131809 -1.2839858e-23 0.0012442122 1.2598687e-23 4.6732675e-43)
(0.001192508 -0.0010183354 1.3829381e-22 0.001258341 -1.6036516e-22 8.2258052e-41)
(0.00088034531 -0.00082939963 6.9496473e-25 0.0012642468 3.038013e-24 9.6277358e-41)
(0.00064065704 -0.00065233849 -2.4618705e-22 0.0012604173 4.1570168e-22 2.5133194e-40)
(0.00046492738 -0.00049178386 -1.3705057e-22 0.0012461437 2.891411e-22 1.7496834e-40)
(0.00034183999 -0.0003511179 6.9370262e-23 0.0012232211 -2.1221716e-22 1.0960787e-39)
(0.00022806567 -8.975186e-05 1.7587001e-22 3.5950629e-05 -5.6034961e-23 4.7803129e-40)
(0.0012219125 -0.00050954974 7.3275784e-22 0.00021301043 -2.9227347e-22 4.3069628e-39)
(0.0022941992 -0.00094005676 5.7767814e-22 0.00038788178 -2.3806955e-22 2.7272277e-40)
(0.0032506118 -0.0012958376 6.4290105e-22 0.00052426778 -2.6272392e-22 1.5149683e-39)
(0.0039637314 -0.0015625688 -9.9000408e-22 0.0006317564 4.092207e-22 2.3871185e-39)
(0.0043905753 -0.0017386857 3.8046488e-23 0.00071552156 -1.2259217e-23 2.2712164e-40)
(0.0045338667 -0.0018334145 5.6774198e-23 0.0007827716 -2.4744555e-23 1.9114835e-42)
(0.0044250474 -0.0018594084 8.0877821e-22 0.00084034545 -3.7687817e-22 8.533755e-40)
(0.0041147388 -0.0018287497 1.0935295e-22 0.00089304133 -5.4113325e-23 7.6920806e-42)
(0.0036638356 -0.0017520611 -2.9404255e-22 0.00094355651 1.6683608e-22 4.6168661e-40)
(0.0031349834 -0.0016387085 9.5743763e-22 0.00099279268 -5.950561e-22 3.2195447e-39)
(0.0025851586 -0.0014973059 -6.9822633e-22 0.001040195 4.6097088e-22 2.7751826e-40)
(0.0020601663 -0.0013361863 -1.3171524e-21 0.0010841454 1.0311323e-21 1.9703845e-39)
(0.0015916942 -0.0011636061 -4.3652844e-23 0.0011224059 4.0281641e-23 4.1689777e-42)
(0.0011970326 -0.00098760665 4.7079507e-22 0.0011525802 -5.2866955e-22 1.597289e-39)
(0.0008809869 -0.00081560916 0 0.0011725543 0 0)
(0.00063913776 -0.00065390866 5.9357242e-23 0.0011808167 -8.5907943e-23 4.1557559e-41)
(0.00046150031 -0.00050726314 -2.9753026e-23 0.0011765235 6.5720698e-23 6.1837684e-41)
(0.00033565203 -0.00037871904 -3.0267436e-23 0.0011603003 6.6524721e-23 1.6248352e-41)
(0.00024904584 -0.00026958457 1.4334098e-23 0.0011370533 -6.2022818e-23 1.1120498e-40)
(0.00026416664 -8.2860192e-05 3.8462582e-22 2.6434144e-05 -9.909464e-23 1.9331674e-39)
(0.0013621443 -0.00045741754 3.782838e-23 0.00015402609 -1.2419326e-23 3.5771509e-42)
(0.0025045812 -0.0008333416 -1.0856636e-22 0.00027963131 3.667891e-23 1.5837521e-41)
(0.0034588604 -0.0011368055 1.118202e-22 0.00038054219 -3.6037755e-23 3.1301174e-40)
(0.0041040157 -0.0013593917 -6.8190271e-22 0.00046479345 2.3934095e-22 5.8716527e-40)
(0.0044152455 -0.0015030619 -3.2817857e-22 0.00053708274 1.1959684e-22 5.3049492e-41)
(0.0044201176 -0.0015776308 2.3283814e-22 0.0006028184 -7.149969e-23 1.672811e-39)
(0.0041757443 -0.0015942327 -8.5378051e-24 0.0006663784 9.6476129e-24 1.3086443e-40)
(0.0037542232 -0.0015625664 -5.5465165e-22 0.00073011904 2.760927e-22 1.3837696e-39)
(0.0032304699 -0.0014909506 9.630483e-22 0.00079446218 -5.0170264e-22 4.0702105e-40)
(0.0026723147 -0.0013871185 -2.5659107e-23 0.00085823449 3.6614554e-23 7.1882347e-40)
(0.0021336462 -0.0012589194 -7.6560002e-22 0.0009190844 5.5829496e-22 1.982524e-39)
(0.0016511136 -0.0011146003 0 0.00097399588 0 0)
(0.0012442658 -0.00096257957 1.8667012e-22 0.0010198575 -2.1291609e-22 1.0636234e-39)
(0.000918312 -0.00081084503 9.4341105e-24 0.0010540048 -2.0091621e-23 5.8220869e-41)
(0.0006682843 -0.0006662438 -2.2695213e-22 0.0010746499 3.5914879e-22 1.2362146e-39)
(0.00048339775 -0.00053391377 -5.1420498e-23 0.0010810816 9.2691851e-23 2.5815429e-41)
(0.00035072786 -0.00041703968 -1.5748054e-23 0.0010735453 4.3266374e-23 4.1493092e-41)
(0.00025765404 -0.00031701854 -2.061396e-23 0.0010538681 5.8363276e-23 1.613696e-41)
(0.00019310088 -0.00023366378 3.7142591e-23 0.0010279957 -1.4294858e-22 1.5422235e-40)
(0.00029716931 -7.0673668e-05 1.4829722e-22 1.7098217e-05 -2.8534811e-23 3.0615123e-40)
(0.0014719217 -0.00037988295 -1.0646002e-21 9.8385756e-05 2.6790955e-22 6.6574078e-39)
(0.0026490768 -0.00068655164 -9.4133524e-23 0.00017996341 2.6712437e-23 6.2162665e-40)
(0.0035668818 -0.00093320604 -2.8362106e-22 0.0002502969 8.3588872e-23 3.1265403e-39)
(0.0041195069 -0.0011159107 -2.133361e-22 0.00031549228 5.928965e-23 4.3233659e-41)
(0.0043070381 -0.0012374804 -1.2084883e-21 0.00037915296 3.7505889e-22 5.72424e-40)
(0.0041846788 -0.0013050606 -5.9275555e-22 0.00044459806 2.091565e-22 4.617225e-40)
(0.0038335598 -0.0013255546 1.1478522e-21 0.00051377135 -4.3321782e-22 3.726002e-40)
(0.0033417844 -0.0013046331 1.966533e-22 0.0005867139 -1.0142975e-22 4.7381676e-40)
(0.0027904963 -0.0012477448 -2.527457e-22 0.00066171394 1.1492859e-22 1.6210406e-40)
(0.0022446579 -0.0011611763 1.1823833e-22 0.00073569994 -4.3609317e-23 6.080686e-40)
(0.0017487728 -0.0010524666 -2.2726221e-23 0.00080480029 3.0105919e-23 1.5412868e-40)
(0.0013270962 -0.00093007792 0 0.00086502806 0 0)
(0.00098709933 -0.00080253372 1.2613871e-22 0.00091296328 -1.3134798e-22 3.7302063e-41)
(0.00072454193 -0.00067741182 -2.686539e-22 0.00094628646 3.513204e-22 5.0849677e-40)
(0.00052861483 -0.00056055661 -8.7303274e-23 0.00096406094 1.3383327e-22 4.3850049e-41)
(0.00038612214 -0.00045570898 1.5123898e-22 0.00096669225 -3.0304582e-22 6.0719513e-40)
(0.00028428316 -0.00036458869 -3.3215297e-23 0.00095557793 4.4392526e-23 1.3041336e-40)
(0.00021214054 -0.00028739213 -1.9869191e-24 0.00093339464 -3.9667831e-24 1.4630464e-41)
(0.00016087781 -0.00022322599 3.4547237e-23 0.00090582414 -1.0254381e-22 1.3232816e-41)
(0.00032503322 -5.3677075e-05 1.0787297e-22 9.0331357e-06 -1.4153705e-23 1.917169e-40)
(0.0015430016 -0.0002821377 -9.876241e-22 5.1868668e-05 1.7796005e-22 3.0536838e-39)
(0.0027172465 -0.00051124093 -7.7161414e-22 9.7909743e-05 1.5304433e-22 3.6541357e-39)
(0.0035686213 -0.00070235671 1.104299e-21 0.00014361298 -2.3065391e-22 8.959639e-40)
(0.0040145136 -0.00085333422 8.3443967e-22 0.00019325578 -1.8768567e-22 1.8666178e-40)
(0.0040837778 -0.00096426323 -6.1203768e-22 0.0002493335 1.3502903e-22 1.9405763e-39)
(0.0038580515 -0.0010363941 1.9935285e-22 0.00031344356 -7.5836003e-23 8.2162188e-40)
(0.003437031 -0.0010704434 1.1700335e-21 0.00038559328 -4.1441944e-22 9.2403148e-40)
(0.0029169135 -0.0010674544 5.1347079e-22 0.00046390141 -2.016354e-22 1.1678734e-40)
(0.0023769392 -0.0010303514 -5.051432e-22 0.00054481172 2.5739187e-22 3.0153632e-40)
(0.0018729482 -0.00096466021 -6.8561933e-22 0.00062365029 4.0764592e-22 3.6117889e-40)
(0.0014369707 -0.00087811288 -1.8707095e-23 0.00069542954 1.3484921e-23 3.7656667e-43)
(0.0010810822 -0.00077946301 1.9751161e-22 0.00075572143 -1.7229661e-22 5.8549716e-41)
(0.00080333373 -0.00067705921 -6.9757232e-24 0.00080136887 2.2582413e-23 8.8823278e-41)
(0.00059379449 -0.00057769399 -7.527246e-24 0.00083086762 3.6735281e-23 2.4040095e-40)
(0.00043942518 -0.0004860136 5.5986324e-24 0.00084437134 -4.7973353e-23 4.3427179e-40)
(0.0003272969 -0.00040449813 6.9724383e-23 0.00084335924 -1.3798906e-22 1.275101e-40)
(0.00024627965 -0.00033385851 -3.9592741e-23 0.00083009732 1.1609873e-22 3.3199382e-40)
(0.00018757768 -0.00027371091 -1.0144799e-22 0.00080761307 2.8132968e-22 6.4436546e-40)
(0.0001444954 -0.00022306202 3.3787965e-23 0.00078060098 -8.2259775e-23 1.4496809e-41)
(0.0003461533 -3.284402e-05 -2.8052331e-22 3.198288e-06 2.3379283e-23 5.7282811e-40)
(0.0015704454 -0.00017142134 -2.2067263e-22 1.894025e-05 2.3656473e-23 6.1803024e-40)
(0.0027052504 -0.00032146732 1.6951884e-21 3.9626686e-05 -2.1495362e-22 7.5514436e-39)
(0.003467613 -0.00046307175 1.2630647e-21 6.647854e-05 -1.8241583e-22 8.257866e-40)
(0.0038040936 -0.00059222445 5.6640047e-22 0.00010273149 -8.8545629e-23 4.0541976e-40)
(0.0037721624 -0.00070263109 1.1432962e-22 0.00015049628 -2.3303295e-23 3.9119039e-42)
(0.0034747158 -0.00078728369 -1.0737362e-21 0.00021056415 2.3719214e-22 1.6947897e-39)
(0.0030219958 -0.00083998359 0 0.00028175452 0 0)
(0.0025099404 -0.00085760881 -6.5819825e-22 0.00036072766 2.8328084e-22 1.4032173e-39)
(0.0020094218 -0.00084148693 -1.1325562e-22 0.00044240332 7.4045785e-23 3.1776195e-40)
(0.0015639136 -0.00079713041 3.22884e-22 0.00052086098 -1.8621338e-22 7.7976353e-41)
(0.0011930644 -0.00073271641 3.4748064e-23 0.00059046463 -4.4149219e-23 1.748216e-40)
(0.00089928163 -0.00065710315 -1.5419029e-22 0.00064686319 1.5025678e-22 2.0374251e-40)
(0.00067474798 -0.0005781236 -1.1623127e-22 0.00068758625 1.51583e-22 4.3538824e-40)
(0.00050719613 -0.00050158796 7.4915392e-23 0.00071213836 -7.578133e-23 5.3505762e-41)
(0.00038378268 -0.00043104736 1.0380557e-22 0.00072167236 -1.3324745e-22 4.9564562e-41)
(0.0002931674 -0.0003681048 -9.2519135e-23 0.00071841376 1.5255281e-22 4.6141503e-41)
(0.00022629089 -0.00031299395 -1.2401314e-22 0.00070504379 2.6599634e-22 5.3904605e-40)
(0.00017637091 -0.00026524603 9.5839292e-24 0.00068447308 -2.0562312e-24 6.3238958e-41)
(0.00013842846 -0.00022406484 1.6864503e-23 0.00066012862 -5.6574444e-23 7.466594e-41)
(0.00035930732 -9.481146e-06 -1.8512075e-22 2.8705094e-07 4.7181716e-24 2.8023504e-40)
(0.0015526664 -5.610959e-05 7.912783e-22 2.2189581e-06 -2.8328887e-23 1.5542721e-39)
(0.0026157819 -0.00013213871 1.2096474e-21 7.8391289e-06 -7.4341469e-23 1.1273589e-38)
(0.0032761141 -0.00023356981 -1.4185218e-21 2.061532e-05 1.2207448e-22 3.1052075e-39)
(0.0035113683 -0.0003505001 5.129916e-22 4.4266156e-05 -5.6126841e-23 7.8468337e-41)
(0.0034031853 -0.00046743372 2.1077051e-22 8.1829015e-05 1.1486195e-24 2.866771e-39)
(0.003067748 -0.00056816653 5.545771e-23 0.00013443825 -1.1208306e-23 1.037403e-42)
(0.0026171807 -0.00064016188 -7.8955741e-22 0.00020045376 1.8175138e-22 9.6811496e-40)
(0.0021402511 -0.00067736192 -1.7933888e-23 0.00027547149 6.1846112e-24 1.5583477e-43)
(0.0016957778 -0.00068057712 2.9487034e-22 0.00035320386 -1.5295052e-22 3.689234e-40)
(0.0013145864 -0.00065580675 2.3149642e-23 0.00042688859 -2.3583059e-23 5.27193e-41)
(0.0010061678 -0.00061160923 -1.0631954e-22 0.00049071484 2.8673162e-23 6.8203299e-40)
(0.00076659182 -0.00055662813 -2.3685468e-22 0.00054081003 1.9217051e-22 7.6914402e-41)
(0.00058534995 -0.00049794122 -1.3788336e-24 0.0005755744 1.8395162e-23 8.8832651e-41)
(0.00045013569 -0.00044040132 8.0257003e-23 0.00059542429 -1.0497898e-22 8.6925425e-41)
(0.00034955215 -0.00038674732 5.3448184e-23 0.00060218186 -8.45399e-23 8.4266909e-41)
(0.00027425373 -0.00033811798 1.218803e-23 0.00059837716 -4.0015914e-23 1.3635315e-40)
(0.00021714438 -0.00029466457 -8.5399676e-23 0.00058667396 1.1991026e-22 1.0982258e-40)
(0.00017311148 -0.00025608859 -1.7509339e-23 0.00056955154 -1.1318753e-23 4.6760807e-40)
(0.00013848248 -0.00022183502 4.70133e-23 0.00054919345 -1.452609e-22 7.71951e-40)
(2.3973312e-06 -2.9952406e-07 2.3957689e-23 3.6585319e-07 -4.7940757e-24 2.7384937e-40)
(1.1300078e-05 -4.729812e-06 -3.4185661e-23 2.42964e-06 9.4724267e-24 2.6363769e-40)
(2.5311473e-05 -1.093068e-05 7.5932922e-23 4.8436697e-06 -2.8455589e-23 1.5142962e-39)
(8.1149551e-05 -2.3067534e-05 2.1198018e-22 6.9469037e-06 -4.5226523e-23 5.0925431e-39)
(0.00017809421 -3.8055882e-05 -1.5147224e-22 8.8378338e-06 2.5819335e-23 1.3244587e-39)
(0.00031830433 -5.4837992e-05 1.9096443e-22 1.0518059e-05 -2.5947419e-23 1.4634338e-39)
(0.00050637057 -7.2842945e-05 -2.6232672e-22 1.1989851e-05 3.335613e-23 1.6074585e-39)
(0.00074353229 -9.1499939e-05 -2.7063852e-22 1.3283644e-05 2.8348533e-23 1.69953e-39)
(0.001028694 -0.0001103457 3.4073031e-22 1.4432211e-05 -3.5414772e-23 1.7970555e-39)
(0.0013599896 -0.00012903876 -2.6467363e-22 1.5461098e-05 2.5925577e-23 9.1533708e-40)
(0.0017350805 -0.00014732203 -1.3204205e-23 1.6389712e-05 2.207567e-25 1.06404e-41)
(0.0021511928 -0.00016499634 7.639139e-23 1.7232922e-05 -8.151704e-24 3.3698708e-41)
(0.0026052491 -0.00018190481 -1.3138398e-23 1.8002126e-05 6.3589212e-25 5.3410977e-42)
(0.0030939925 -0.00019792321 4.1603371e-22 1.8706481e-05 -3.7422368e-23 1.6034869e-39)
(0.0036140609 -0.00021295695 5.0717533e-25 1.9354442e-05 7.8777344e-25 3.4619442e-42)
(0.0041620622 -0.00022694683 -6.1365658e-22 1.9955309e-05 5.7525551e-23 3.2983795e-39)
(0.0047346752 -0.00023987409 1.1401249e-22 2.0519017e-05 -1.1994465e-23 6.9699497e-41)
(0.0053286645 -0.00025173774 2.7728074e-22 2.1052931e-05 -2.7482754e-23 8.3877851e-40)
(0.0059408146 -0.00026258846 -4.5133187e-22 2.156435e-05 4.7844704e-23 2.3776305e-39)
(0.0065674695 -0.00027277517 -2.5025499e-22 2.2048981e-05 2.8246316e-23 8.9269669e-40)
(2.7151862e-06 -1.2530463e-06 7.8933317e-24 3.2195352e-06 -2.919269e-24 2.7118295e-41)
(1.4405547e-05 -1.6207251e-05 -2.1649684e-22 2.1410203e-05 1.6323274e-22 8.8168395e-39)
(3.2327067e-05 -3.6796819e-05 4.2962671e-23 4.2670091e-05 -3.5527811e-23 7.9577086e-40)
(9.5476841e-05 -7.4679502e-05 2.2806778e-22 6.1201319e-05 -1.4013269e-22 4.2563524e-39)
(0.0002008935 -0.00012078983 3.1695174e-22 7.7827244e-05 -1.5239699e-22 4.8132004e-39)
(0.00035005227 -0.00017201992 3.833689e-23 9.253888e-05 -1.5384926e-23 4.5215954e-41)
(0.00054700135 -0.00022666485 -1.0196767e-21 0.00010535994 3.536061e-22 2.4074737e-38)
(0.00079232773 -0.00028303685 -3.5981425e-23 0.0001165604 1.4922082e-23 6.9651394e-42)
(0.0010843514 -0.00033977549 5.7763795e-22 0.00012642833 -1.7608055e-22 4.1093723e-39)
(0.0014206727 -0.00039587789 -1.3950222e-22 0.0001351887 3.8570895e-23 2.2850205e-40)
(0.001798425 -0.00045058663 -5.3009086e-22 0.00014301242 1.4545737e-22 2.5351261e-39)
(0.0022143013 -0.00050331245 1.1163303e-22 0.00015002954 -2.85833e-23 1.1542619e-40)
(0.0026646805 -0.00055358807 4.7149144e-22 0.00015633818 -1.0564552e-22 2.7187221e-39)
(0.0031457384 -0.00060103865 1.952658e-22 0.00016201504 -4.8630469e-23 3.1059876e-40)
(0.0036535029 -0.00064537094 3.9134795e-22 0.00016712856 -1.0432416e-22 8.9859544e-40)
(0.0041839283 -0.00068638859 -3.0972029e-22 0.00017175204 7.8069969e-23 7.6006403e-40)
(0.0047330808 -0.00072401227 -2.9657233e-22 0.000175965 7.3993932e-23 8.3131321e-40)
(0.0052970666 -0.00075820797 3.0034741e-22 0.00017983112 -8.5160449e-23 4.8077149e-40)
(0.0058709132 -0.00078911015 2.7499087e-22 0.00018342247 -7.6052179e-23 8.4026615e-40)
(0.0064487428 -0.00081805157 1.0692222e-22 0.0001867285 -2.8400617e-23 3.5678824e-40)
(3.4901143e-06 -3.2077594e-06 6.0733913e-24 8.5865833e-06 -3.0406114e-24 1.4279592e-41)
(2.1774987e-05 -3.3493748e-05 1.6442926e-22 5.7152867e-05 -1.7599808e-22 3.757585e-39)
(4.8662555e-05 -7.4013896e-05 -3.5988172e-23 0.00011381573 4.6379612e-23 1.9678665e-40)
(0.00012711999 -0.00014175892 -2.4778249e-22 0.00016318097 2.086597e-22 4.6592403e-39)
(0.0002500622 -0.0002221823 9.1318455e-23 0.00020731642 -7.6700983e-23 1.3209635e-40)
(0.0004175884 -0.00031026413 1.2106179e-22 0.00024610305 -9.8433891e-23 6.9661527e-41)
(0.00063265387 -0.00040318837 -1.5073169e-22 0.00027959746 7.9965851e-23 4.1517813e-40)
(0.00089461267 -0.00049822301 -3.9444374e-22 0.00030851848 2.3026771e-22 8.3041994e-40)
(0.0012006673 -0.00059318404 1.7266454e-22 0.00033363175 -8.3985963e-23 2.3199324e-40)
(0.0015473824 -0.00068645479 3.6676552e-22 0.00035553979 -1.5266725e-22 1.3172092e-39)
(0.0019308672 -0.00077680334 1.0252232e-22 0.00037470289 -7.0915718e-23 4.9600898e-41)
(0.0023467828 -0.00086326021 4.4883867e-22 0.00039146991 -1.4930198e-22 2.444057e-39)
(0.0027904557 -0.0009450431 3.8115916e-23 0.00040609961 -1.4139692e-23 1.0136884e-41)
(0.0032569686 -0.0010215062 -6.6810966e-22 0.00041878621 2.2595809e-22 3.9303414e-39)
(0.0037411881 -0.0010921199 4.9382278e-23 0.00042969424 -3.2444147e-23 2.181445e-41)
(0.0042378399 -0.0011564967 -3.1279557e-22 0.00043899549 8.7283252e-23 1.5312603e-39)
(0.0047418644 -0.0012144387 -4.421465e-22 0.00044687764 1.748893e-22 6.3019583e-40)
(0.0052482265 -0.0012658211 7.1886618e-22 0.00045352649 -2.796219e-22 2.0913437e-39)
(0.0057490086 -0.0013108169 3.8026853e-22 0.00045924688 -1.5684713e-22 4.258658e-40)
(0.0062349932 -0.001352275 7.5789086e-23 0.00046421836 -3.4349023e-23 9.1420189e-42)
(5.1413304e-06 -6.6343724e-06 -9.087552e-24 1.5811723e-05 1.1439636e-23 2.0947825e-41)
(3.5699153e-05 -5.9472527e-05 -3.809963e-22 0.00010543808 4.8182107e-22 1.2469338e-38)
(7.8989474e-05 -0.0001282266 -2.7673466e-23 0.00020979176 3.5563148e-23 1.703995e-40)
(0.00018277138 -0.00023183054 6.3928908e-23 0.00030055822 -7.0767842e-23 1.0868925e-40)
(0.00033422546 -0.00035101574 -1.0272993e-23 0.00038130637 2.6309091e-24 2.8059157e-41)
(0.00053141555 -0.0004789658 3.2573603e-22 0.0004515912 -2.3881724e-22 2.0479193e-39)
(0.00077561234 -0.00061174805 3.6034574e-22 0.0005114794 -2.353882e-22 1.8604936e-39)
(0.0010643397 -0.0007456842 -1.0911653e-22 0.00056229551 5.2766583e-23 2.9314532e-40)
(0.0013931245 -0.00087786478 -4.0070709e-22 0.00060545908 2.0938005e-22 1.8641582e-39)
(0.0017569554 -0.0010061182 -8.0875766e-22 0.00064210405 4.3626319e-22 3.9538903e-39)
(0.0021503823 -0.0011287659 -1.7474238e-23 0.00067310912 -9.5294694e-24 9.023517e-41)
(0.0025675087 -0.0012444662 1.0303128e-21 0.00069914582 -4.8013489e-22 6.4612697e-39)
(0.0030020855 -0.0013521093 -4.1751263e-22 0.00072071055 1.5944039e-22 1.9097713e-39)
(0.0034476028 -0.0014507564 -2.7021652e-22 0.00073817125 1.183738e-22 3.7697952e-40)
(0.0038972974 -0.0015396055 -3.2873427e-23 0.00075182506 3.6528137e-23 8.1360396e-41)
(0.0043442434 -0.001618024 6.4128567e-22 0.00076196252 -2.8113061e-22 1.5467844e-39)
(0.0047819138 -0.0016856423 -3.638476e-22 0.00076889326 1.8200789e-22 1.0415798e-40)
(0.0052039975 -0.0017422582 -8.3502967e-22 0.00077301009 3.5159165e-22 3.3298113e-39)
(0.0055992596 -0.0017881069 5.6159572e-22 0.00077526698 -2.4429614e-22 1.6744551e-39)
(0.0059548495 -0.0018278054 4.8420654e-22 0.00077674199 -1.9416135e-22 1.5570771e-39)
(8.2223285e-06 -1.1815946e-05 4.0806439e-23 2.4102727e-05 -3.9657159e-23 2.6851874e-40)
(5.9234839e-05 -9.5832271e-05 1.3175183e-23 0.00016093251 -3.36355e-24 1.2142633e-40)
(0.00012948217 -0.00020269385 -5.2547127e-22 0.00031967078 7.5221916e-22 1.0231505e-38)
(0.00027106647 -0.00034903453 -3.0184119e-22 0.00045729108 3.2056812e-22 3.1641125e-39)
(0.00046403856 -0.00051167378 2.0134225e-22 0.00057886529 -1.6031077e-22 1.9123213e-39)
(0.00070369239 -0.00068199828 2.50681e-22 0.00068336173 -2.0197598e-22 9.0091966e-40)
(0.00098888445 -0.00085490816 -3.2611374e-22 0.00077084195 2.1296009e-22 2.1079361e-39)
(0.0013146146 -0.0010258923 -4.9749145e-22 0.00084335737 2.8546676e-22 4.6256527e-39)
(0.0016740826 -0.0011914415 7.3734236e-22 0.00090312633 -4.4035624e-22 4.7468322e-39)
(0.002060073 -0.0013489195 2.1120201e-22 0.00095195942 -8.543306e-23 1.1048433e-39)
(0.0024649701 -0.0014962671 -6.6784828e-22 0.00099129566 4.4170915e-22 3.6762726e-40)
(0.0028807589 -0.0016318229 2.9240957e-22 0.0010222612 -1.3290231e-22 8.5076744e-40)
(0.0032991482 -0.001754208 0 0.0010457118 0 0)
(0.0037116737 -0.0018622473 2.8564555e-22 0.0010622907 -1.3918427e-22 3.3309664e-40)
(0.004109737 -0.0019549295 -2.1454043e-22 0.0010725068 1.0194972e-22 1.7788782e-40)
(0.0044847491 -0.00203144 -3.2916052e-22 0.0010768196 1.642648e-22 2.1616087e-40)
(0.0048289691 -0.0020913059 1.2185886e-22 0.0010756652 -9.9234387e-23 3.0371707e-40)
(0.0051355148 -0.0021344062 -9.9034256e-23 0.0010696577 5.9116737e-23 1.1008396e-41)
(0.0053908085 -0.002161278 4.7565699e-22 0.0010608989 -2.0586316e-22 1.802377e-39)
(0.0055781887 -0.0021781199 -3.8581556e-22 0.0010528002 1.8884514e-22 1.0544e-40)
(1.3374178e-05 -1.8842374e-05 3.9136371e-23 3.2674669e-05 -3.2904913e-23 2.1560455e-40)
(9.5835012e-05 -0.00014289365 1.8879096e-22 0.0002180339 -2.5134603e-22 8.059379e-40)
(0.00020696032 -0.00029778346 -2.5340262e-22 0.00043175685 3.3617299e-22 1.9198229e-39)
(0.00040109574 -0.0004932346 -4.164132e-22 0.0006160227 4.6835193e-22 1.6083603e-39)
(0.00064984509 -0.00070288492 -1.2305046e-22 0.00077724148 1.8006599e-22 1.2693594e-39)
(0.00094477753 -0.0009162024 -3.7674622e-22 0.00091362984 3.3085062e-22 7.9006443e-40)
(0.0012813946 -0.001126862 -1.7508566e-22 0.0010253171 1.0779394e-22 9.125639e-40)
(0.0016513583 -0.001329679 3.0360619e-22 0.0011152063 -1.8258645e-22 1.6833005e-39)
(0.0020448104 -0.0015207387 7.2660817e-22 0.0011864551 -4.3297992e-22 5.7636821e-39)
(0.002451666 -0.001697126 2.2409333e-22 0.0012417136 -1.378937e-22 2.4176846e-40)
(0.0028616238 -0.0018565977 -2.1291204e-22 0.0012831528 1.1302804e-22 3.8347017e-40)
(0.0032641991 -0.0019973827 -3.9487804e-23 0.0013125278 -8.7294462e-24 3.3396519e-40)
(0.0036489281 -0.0021180618 -1.0163701e-21 0.0013312241 5.5590879e-22 3.1811412e-39)
(0.0040055717 -0.0022174892 -3.1576422e-22 0.0013403222 1.650677e-22 3.2903814e-40)
(0.0043242562 -0.0022947475 5.2952633e-22 0.0013406842 -3.0590221e-22 1.5670667e-40)
(0.0045957144 -0.0023491658 -5.2819202e-22 0.0013330398 2.8516712e-22 3.2587947e-40)
(0.0048123879 -0.0023804664 -1.8644365e-22 0.0013179608 9.1737252e-23 1.0410017e-40)
(0.004968864 -0.002388919 4.1823628e-22 0.0012961354 -1.764743e-22 1.6174958e-39)
(0.0050521812 -0.0023757937 6.350655e-22 0.0012709563 -3.1714238e-22 1.2272933e-39)
(0.0050423572 -0.0023483509 7.7317279e-23 0.0012499355 -3.6119748e-23 2.3889554e-41)
(2.1279079e-05 -2.7616695e-05 -1.1037875e-22 4.081441e-05 8.9619137e-23 1.2756455e-39)
(0.00014893951 -0.00019957759 -1.2219194e-22 0.00027143338 1.2396206e-22 1.0167735e-39)
(0.00031786215 -0.00041077709 3.1010944e-22 0.00053490051 -3.9159854e-22 4.685258e-40)
(0.00058068262 -0.00065962023 4.7261476e-22 0.00076018858 -4.8934422e-22 2.1331132e-39)
(0.00089918139 -0.00091719345 6.1745252e-24 0.00095481712 -5.5576105e-24 4.2340245e-43)
(0.0012599527 -0.0011709008 -1.2840892e-21 0.0011163054 1.0589998e-21 1.2455293e-38)
(0.0016540253 -0.0014132276 -5.0388478e-22 0.0012450744 4.3079494e-22 1.7885426e-40)
(0.0020688795 -0.0016385952 3.912629e-22 0.001345052 -2.6377559e-22 1.3666684e-39)
(0.0024909892 -0.0018430371 4.4916176e-22 0.0014204903 -3.0140701e-22 8.3599011e-40)
(0.0029070328 -0.002023741 -4.4008006e-22 0.0014750472 2.4498655e-22 2.2942544e-39)
(0.0033039279 -0.0021786846 -1.2959427e-21 0.001511806 8.1687378e-22 3.346075e-39)
(0.0036690121 -0.0023064318 8.5302009e-22 0.001533331 -5.1624718e-22 1.3756745e-39)
(0.0039904054 -0.002406012 5.0783862e-22 0.0015417159 -2.6473733e-22 1.6472109e-39)
(0.0042573847 -0.0024768443 -7.0499858e-22 0.0015386493 3.8854562e-22 1.3597573e-39)
(0.00446069 -0.0025186878 3.1014235e-22 0.0015254977 -1.7867468e-22 9.1297919e-41)
(0.0045928604 -0.0025316202 5.1515171e-22 0.0015033702 -2.650549e-22 1.0126675e-39)
(0.0046494317 -0.0025160982 1.9646224e-22 0.0014729841 -1.1050198e-22 3.4552634e-41)
(0.004629799 -0.0024731644 -3.3688405e-22 0.0014348144 2.0747108e-22 4.3914317e-41)
(0.0045262766 -0.0024051312 -7.8425999e-23 0.0013930039 2.563242e-23 2.5072018e-40)
(0.0043179749 -0.0023194329 4.4243489e-22 0.0013602796 -2.549399e-22 1.0234334e-40)
(3.2608942e-05 -3.7857496e-05 -3.2508936e-24 4.788922e-05 -3.5074837e-24 2.3843834e-41)
(0.00022152321 -0.0002634401 -4.4501708e-22 0.00031641639 4.7079412e-22 3.3422877e-39)
(0.00046713135 -0.00053596983 -3.5477812e-22 0.00061939484 3.8070264e-22 5.0551525e-39)