/*--------------------------------*- C++ -*----------------------------------*\
  =========                 |
  \\      /  F ield         | OpenFOAM: The Open Source CFD Toolbox
   \\    /   O peration     | Website:  https://openfoam.org
    \\  /    A nd           | Version:  6
     \\/     M anipulation  |
\*---------------------------------------------------------------------------*/
FoamFile
{
    version     2.0;
    format      ascii;
    class       volScalarField;
    location    "300";
    object      pPrime2Mean;
}
// * * * * * * * * * * * * * * * * * * * * * * * * * * * * * * * * * * * * * //

dimensions      [0 4 -4 0 0 0 0];

internalField   nonuniform List<scalar> 
9200
(
0.037532644
0.031117761
0.025686486
0.022150081
0.019326819
0.016946809
0.014892779
0.013104902
0.011543353
0.010176248
0.0089771891
0.0079240597
0.0069981965
0.006183753
0.0054672064
0.0048369936
0.0042833257
0.0037980322
0.0033749951
0.0030061737
0.030451507
0.025200541
0.020809069
0.017921958
0.015605078
0.013646075
0.01195283
0.010478335
0.0091909303
0.0080651124
0.007079597
0.0062163912
0.0054601535
0.0047977022
0.004217637
0.0037100689
0.0032664774
0.0028795123
0.0025422877
0.0022449769
0.023811618
0.019680218
0.016265307
0.013989626
0.012148542
0.010584086
0.0092282417
0.0080464104
0.0070149767
0.0061146404
0.0053289827
0.0046438156
0.004046754
0.0035268991
0.0030746133
0.0026813711
0.0023396759
0.0020428999
0.0017843687
0.0015553365
0.01779708
0.014705493
0.012174479
0.010454877
0.00904591
0.0078390894
0.0067887863
0.0058720612
0.0050729022
0.0043777264
0.003774446
0.0032521331
0.0028008501
0.0024115573
0.0020760735
0.0017870634
0.0015380234
0.0013231767
0.0011368171
0.00097232497
0.012573732
0.01041
0.0086464037
0.0074124752
0.0063806775
0.0054856797
0.0047018767
0.0040168583
0.0034214122
0.0029068597
0.0024646561
0.002086431
0.001764132
0.0014901858
0.0012576443
0.0010602862
0.00089265289
0.00074998895
0.00062789721
0.00052193362
0.0082877172
0.0069101657
0.0057784679
0.0049471622
0.0042280751
0.0035916502
0.003029309
0.0025375978
0.0021129109
0.0017503705
0.0014440176
0.0011872875
0.00097348923
0.00079620152
0.00064955461
0.00052838879
0.00042829423
0.00034556184
0.00027705321
0.0002200188
0.0050612465
0.0043024427
0.0036534849
0.003131836
0.0026534589
0.0022164368
0.0018256122
0.0014844792
0.0011935189
0.00095037723
0.00075069013
0.00058900788
0.00045957351
0.00035688017
0.00027600758
0.00021276964
0.00016371879
0.00012608098
9.7734748e-05
7.7069812e-05
0.0029894953
0.0026614108
0.0023381898
0.0020261497
0.0017108788
0.0014095447
0.0011362883
0.00089920393
0.00070115523
0.00054101484
0.00041510698
0.0003185248
0.00024611004
0.00019306762
0.00015527321
0.00012936062
0.00011267209
0.00010316913
9.9439252e-05
0.00010053482
0.0021379647
0.0020376807
0.0018804394
0.0016734761
0.0014402886
0.0012082224
0.00099600842
0.00081367858
0.00066470558
0.00054801023
0.00045989042
0.00039557812
0.00035027086
0.00031969543
0.00030032764
0.00028940079
0.00028480742
0.00028499049
0.0002889219
0.00029592627
0.002539664
0.0024562176
0.0023062869
0.0020980937
0.0018648792
0.0016346859
0.0014256398
0.0012469431
0.0011010428
0.00098598122
0.0008975413
0.00083082591
0.00078118616
0.00074464988
0.00071803523
0.00069889121
0.00068537207
0.00067611683
0.00067016109
0.00066676716
0.089003288
0.074856606
0.061868101
0.053654839
0.047133227
0.041659063
0.036945923
0.032839286
0.029243486
0.026083342
0.02329743
0.020834904
0.01865317
0.016716221
0.014993398
0.013458438
0.012088739
0.010864057
0.0097653821
0.0087817186
0.087870824
0.073831733
0.060991938
0.052872998
0.046433067
0.041028667
0.036375907
0.032322806
0.028774797
0.025657419
0.022909831
0.020481676
0.018330783
0.016421514
0.014723537
0.013210889
0.011861263
0.010654712
0.0095721154
0.0086028568
0.08556083
0.071802639
0.059284176
0.051367086
0.045094387
0.039831411
0.035300374
0.031354058
0.027900373
0.024866649
0.022193466
0.019831625
0.017739924
0.015883557
0.014232906
0.012762641
0.011451063
0.010278815
0.0092268379
0.0082847035
0.082113654
0.068818592
0.05679415
0.049183842
0.043159501
0.038105603
0.033754394
0.029965376
0.026650182
0.023738933
0.021174436
0.018909298
0.01690382
0.015124458
0.013542676
0.012134077
0.010877805
0.0097553617
0.0087480714
0.0078453734
0.077623395
0.064964254
0.053593977
0.046387768
0.040686273
0.035903413
0.031785337
0.028200018
0.025063905
0.022310814
0.019886513
0.017746016
0.015851613
0.014171427
0.012678336
0.011349137
0.010163997
0.0091054754
0.008155819
0.0073041946
0.072217955
0.060351762
0.049777192
0.043061282
0.037748128
0.033290616
0.02945239
0.026111413
0.023189911
0.020626179
0.018369598
0.016378122
0.014616466
0.013054784
0.011667665
0.010433334
0.0093331185
0.008350731
0.0074699497
0.0066799958
0.066052637
0.055115607
0.045454518
0.039301046
0.034430753
0.030343649
0.02682396
0.023760878
0.021083235
0.018734478
0.01666815
0.014845607
0.013234385
0.011807
0.010540027
0.0094133461
0.0084095844
0.0075136164
0.0067111949
0.0059923127
0.059304515
0.049407865
0.040750306
0.035214992
0.030829447
0.027147213
0.023975528
0.021215755
0.018803993
0.016689381
0.014830084
0.013191253
0.011743589
0.010462272
0.0093261342
0.0083169526
0.0074188617
0.0066179641
0.0059022433
0.0052631766
0.052166028
0.043392529
0.03579803
0.030918359
0.027045574
0.023791124
0.02098687
0.01854693
0.016415164
0.014546835
0.012905088
0.011459191
0.010183298
0.0090555153
0.0080571719
0.0071721896
0.0063864994
0.0056877054
0.0050663093
0.0045153183
0.044838007
0.037240908
0.030735517
0.02652866
0.023181667
0.020365703
0.017937812
0.01582506
0.013979381
0.012362433
0.010942582
0.0096934146
0.008592706
0.007621642
0.0067642105
0.0060066998
0.0053373033
0.0047460721
0.0042268458
0.003772957
0.0077440959
0.0067097426
0.0058328531
0.0050717095
0.0044216209
0.0038648978
0.0033861894
0.0029723261
0.0026126009
0.002298319
0.0020224388
0.0017793193
0.0015644331
0.0013740995
0.0012052848
0.0010554562
0.00092247042
0.00080448904
0.00069991642
0.00060735319
0.00052556075
0.00045343405
0.00038998045
0.00033430333
0.00028558935
0.00024309859
0.00020615681
0.00017414929
0.00014651588
0.0001227469
0.00010237966
8.4995329e-05
7.0216167e-05
5.7702779e-05
4.7151613e-05
3.8292367e-05
3.0885611e-05
2.4720213e-05
1.961122e-05
1.5396937e-05
1.1938218e-05
9.1122663e-06
6.821348e-06
4.9637295e-06
3.4987749e-06
2.2931557e-06
1.4572396e-06
6.7162323e-07
8.8215638e-07
1.4686812e-06
0.0075939599
0.0065938631
0.0057420272
0.0050001294
0.0043658446
0.0038218801
0.0033530377
0.002946644
0.0025925389
0.0022824611
0.0020097309
0.0017690054
0.0015559771
0.001367116
0.00119949
0.0010506357
0.00091845699
0.00080114854
0.00069713888
0.00060504714
0.00052364944
0.00045185277
0.00038867462
0.0003332269
0.00028470353
0.00024237083
0.00020555983
0.00017366034
0.000146116
0.00012242037
0.00010211346
8.4778694e-05
7.0040226e-05
5.7560223e-05
4.7036428e-05
3.8199607e-05
3.0811211e-05
2.4660829e-05
1.9564109e-05
1.5359845e-05
1.1909298e-05
9.0900099e-06
6.8045259e-06
4.9513626e-06
3.4900671e-06
2.2874772e-06
1.4542307e-06
6.6982869e-07
8.7695793e-07
1.440497e-06
0.0073298018
0.0063913398
0.0055848473
0.0048782541
0.0042723514
0.0037508869
0.0032991361
0.0029054164
0.0025606516
0.0022574393
0.0019897803
0.001752867
0.001542775
0.0013562297
0.0011904679
0.0010431385
0.00091222122
0.00079596318
0.00069283112
0.0006014733
0.00052068901
0.00044940424
0.00038665241
0.000331559
0.00028332945
0.00024123991
0.00020462982
0.00017289609
0.00014548839
0.00012190532
0.00010169112
8.4432726e-05
6.9757187e-05
5.7329064e-05
4.6848066e-05
3.8046566e-05
3.0687331e-05
2.456103e-05
1.9484192e-05
1.5296341e-05
1.1859341e-05
9.0512358e-06
6.7749957e-06
4.9295043e-06
3.474617e-06
2.2773755e-06
1.4489553e-06
6.6665881e-07
8.6656687e-07
1.3854405e-06
0.0069678722
0.006114711
0.0053726305
0.0047170506
0.0041509422
0.0036600278
0.0032309347
0.0028536315
0.0025207243
0.0022261314
0.0019648196
0.0017326828
0.00152628
0.0013426526
0.0011792429
0.0010338366
0.00090450676
0.00078956657
0.00068753141
0.00059708713
0.00051706314
0.00044641017
0.00038418236
0.00032952273
0.00028165161
0.00023985776
0.00020349132
0.00017195822
0.00014471569
0.00012126865
0.00010116655
8.4000665e-05
6.9401579e-05
5.703675e-05
4.6608235e-05
3.7850326e-05
3.0527341e-05
2.4431214e-05
1.9379507e-05
1.5212594e-05
1.1793039e-05
8.9994749e-06
6.7353764e-06
4.900062e-06
3.4537584e-06
2.2637575e-06
1.4418679e-06
6.6249693e-07
8.509753e-07
1.3063283e-06
0.0065241168
0.0057767232
0.0051170026
0.0045276655
0.004011434
0.0035571175
0.0031543413
0.0027956778
0.002476014
0.002191009
0.0019368049
0.0017100675
0.0015078657
0.0013275745
0.0011668545
0.0010236395
0.00089610747
0.00078264814
0.000681835
0.0005923994
0.00051320743
0.00044323986
0.00038157579
0.00032737908
0.00027988766
0.00023840496
0.00020229343
0.00017096922
0.00014389806
0.00012059184
0.00010060575
8.3535718e-05
6.9016083e-05
5.671734e-05
4.634398e-05
3.7632244e-05
3.034801e-05
2.4284469e-05
1.9260199e-05
1.5116405e-05
1.1716339e-05
8.9392099e-06
6.6889966e-06
4.8654578e-06
3.4291817e-06
2.2477683e-06
1.4335262e-06
6.578344e-07
8.3032888e-07
1.2072988e-06
0.0060121213
0.0053889363
0.0048284283
0.004319148
0.0038609835
0.0034471573
0.0030726039
0.0027337274
0.0024281198
0.0021533786
0.001906896
0.0016860985
0.0014885439
0.0013119385
0.0011541713
0.0010133372
0.00088773292
0.00077583816
0.00067629614
0.00058789321
0.00050953954
0.00044025176
0.0003791382
0.00032538685
0.00027825548
0.00023706391
0.00020118798
0.00017005481
0.00014313905
0.00011995977
0.00010007791
8.3093994e-05
6.8645969e-05
5.6407173e-05
4.6084309e-05
3.7415346e-05
3.0167506e-05
2.4135039e-05
1.9137355e-05
1.5016335e-05
1.163579e-05
8.8753914e-06
6.6395373e-06
4.8283724e-06
3.402749e-06
2.2306619e-06
1.4245147e-06
6.5319546e-07
8.0486282e-07
1.0933747e-06
0.0054451429
0.004962907
0.004516217
0.0040969471
0.0037019159
0.0033306079
0.002985359
0.0026673859
0.0023770115
0.0021136102
0.001875753
0.0016616082
0.0014692249
0.0012966642
0.0011420771
0.001003752
0.00088013093
0.00076980536
0.00067150498
0.00058408373
0.00050650513
0.00043782825
0.00037719539
0.00032382176
0.00027698702
0.00023602856
0.00020033627
0.00016934844
0.00014254847
0.00011946233
9.9656269e-05
8.2734858e-05
6.8339115e-05
5.6144659e-05
4.5859873e-05
3.7223957e-05
3.0005017e-05
2.3997959e-05
1.9022672e-05
1.4921408e-05
1.1558278e-05
8.8132098e-06
6.590841e-06
4.7915841e-06
3.3763697e-06
2.2137071e-06
1.4153948e-06
6.4908424e-07
7.7489444e-07
9.6998939e-07
0.004839726
0.004511835
0.0041875086
0.0038602697
0.0035292912
0.0032023099
0.0028887953
0.0025943958
0.0023217645
0.0020717348
0.00184398
0.0016374904
0.0014509154
0.0012827654
0.0011315319
0.00099575887
0.00087407954
0.00076522948
0.00066804762
0.0005814712
0.00050452763
0.00043632529
0.00037604472
0.00032293087
0.0002762865
0.00023546695
0.00019987593
0.00016896227
0.00014221737
0.0001191731
9.9400002e-05
8.2505698e-05
6.8133285e-05
5.5959748e-05
4.5694303e-05
3.7076618e-05
2.9875009e-05
2.3884443e-05
1.8924779e-05
1.4838207e-05
1.1488779e-05
8.7563761e-06
6.5456223e-06
4.7570339e-06
3.3513418e-06
2.1977513e-06
1.4064495e-06
6.4583491e-07
7.4078146e-07
8.4259711e-07
0.0042123078
0.0040413633
0.0038347376
0.0035919336
0.0033244483
0.0030470348
0.0027718618
0.0025068943
0.0022566964
0.0020235707
0.0018084284
0.0016113061
0.0014316756
0.0012686684
0.0011212404
0.00098828136
0.0008686794
0.00076135808
0.0006652954
0.00057953207
0.00050317294
0.00043538477
0.00037539238
0.00032247438
0.0002759592
0.00023522168
0.00019968026
0.00016879474
0.00014206456
0.00011902736
9.9257672e-05
8.2365721e-05
6.7996213e-05
5.5826992e-05
4.5567598e-05
3.6957677e-05
2.9765298e-05
2.3785075e-05
1.8836468e-05
1.4761281e-05
1.1423229e-05
8.7019181e-06
6.5017549e-06
4.7232439e-06
3.3266451e-06
2.1821355e-06
1.3971074e-06
6.4329996e-07
7.0305213e-07
7.1679692e-07
0.0035880743
0.0035370547
0.0034243565
0.0032608491
0.0030636264
0.0028467767
0.0026206107
0.0023937685
0.0021727199
0.0019616169
0.0017629222
0.0015779862
0.0014073503
0.0012509701
0.0011084193
0.00097904661
0.00086207832
0.00075668592
0.00066202925
0.00057728302
0.00050165151
0.00043437584
0.00037473687
0.00032205574
0.00027569323
0.00023504877
0.00019955942
0.00016869892
0.00014197697
0.00011893859
9.9163447e-05
8.2265178e-05
6.7890583e-05
5.5718639e-05
4.5459332e-05
3.6852287e-05
2.9665265e-05
2.3692411e-05
1.8752656e-05
1.4687275e-05
1.1359522e-05
8.6485975e-06
6.4585864e-06
4.6899062e-06
3.3021777e-06
2.1667637e-06
1.3872979e-06
6.413352e-07
6.6313381e-07
5.9849051e-07
0.0029091335
0.0029271741
0.0028908987
0.0028033062
0.0026803906
0.0025324306
0.002366517
0.0021903479
0.0020110185
0.0018337507
0.0016621518
0.0014987132
0.0013450336
0.0012019803
0.0010698832
0.00094870476
0.00083816167
0.00073781193
0.00064711779
0.00056548954
0.00049231475
0.00042697713
0.00036886865
0.00031739725
0.00027199168
0.00023210475
0.00019721554
0.0001668309
0.00014048667
0.0001177485
9.8212342e-05
8.1504662e-05
6.7282376e-05
5.5232417e-05
4.5071025e-05
3.6542745e-05
2.9419205e-05
2.3497599e-05
1.8599265e-05
1.4567403e-05
1.1266768e-05
8.5778921e-06
6.4056127e-06
4.6518181e-06
3.2752527e-06
2.1511239e-06
1.376031e-06
6.4013844e-07
6.2152585e-07
4.9429188e-07
0.0022552051
0.0023116863
0.0023233633
0.0022899484
0.0022241272
0.002133433
0.0020220794
0.0018959828
0.0017614823
0.0016235769
0.0014859967
0.0013516128
0.0012225402
0.0011002013
0.00098546645
0.00087879723
0.00078035515
0.00069008399
0.00060777508
0.00053311659
0.00046572921
0.00040519163
0.00035105873
0.00030287457
0.00026018186
0.00022252885
0.0001894747
0.00016059351
0.00013547757
0.0001137399
9.5016185e-05
7.8966135e-05
6.5274421e-05
5.3651091e-05
4.3831572e-05
3.5576292e-05
2.866997e-05
2.2920572e-05
1.8158235e-05
1.4233394e-05
1.1016564e-05
8.3932664e-06
6.2715944e-06
4.5578878e-06
3.2102937e-06
2.1123053e-06
1.348547e-06
6.33624e-07
5.6825234e-07
3.9507182e-07
0.0016926666
0.0017745996
0.0018198375
0.0018280671
0.0018070103
0.0017621529
0.0016960941
0.0016130357
0.0015181881
0.0014160142
0.0013100593
0.0012032573
0.0010979694
0.00099596617
0.00089850395
0.00080643193
0.00072027875
0.00064032242
0.00056665032
0.00049920828
0.00043783866
0.00038230935
0.00033233598
0.00028759878
0.00024775568
0.00021245237
0.00018133032
0.00015403318
0.00013021191
0.000109529
9.1661708e-05
7.6304665e-05
6.3171756e-05
5.1997406e-05
4.2537312e-05
3.4568698e-05
2.7890147e-05
2.232103e-05
1.7700811e-05
1.3887588e-05
1.0757971e-05
8.2027789e-06
6.1334864e-06
4.4612684e-06
3.1432644e-06
2.0725678e-06
1.3190295e-06
6.2796102e-07
5.102109e-07
3.0174035e-07
0.0012198509
0.0013150802
0.0013809991
0.0014181422
0.0014299203
0.001419959
0.0013899595
0.0013426601
0.001281922
0.0012114183
0.0011342763
0.0010532352
0.00097065231
0.00088843743
0.00080806868
0.0007306562
0.00065700203
0.0005876518
0.00052294332
0.00046305002
0.00040801709
0.00035779077
0.00031224191
0.00027118509
0.00023439383
0.00020161303
0.00017256904
0.00014697793
0.0001245523
0.00010500696
8.8063431e-05
7.3453699e-05
6.0923024e-05
5.0232097e-05
4.1158516e-05
3.3497687e-05
2.7063225e-05
2.1686881e-05
1.7218245e-05
1.3523738e-05
1.0486592e-05
8.0033507e-06
5.9891877e-06
4.3604272e-06
3.0732154e-06
2.0309075e-06
1.2872704e-06
6.2219665e-07
4.5159345e-07
2.2162828e-07
0.00083956714
0.00093557953
0.0010102976
0.0010642259
0.0010976029
0.0011122565
0.001109195
0.001090016
0.0010572612
0.0010136726
0.00096179648
0.00090399237
0.00084241036
0.00077890963
0.00071502857
0.00065200583
0.00059081168
0.00053217909
0.00047663707
0.00042454417
0.00037611889
0.00033146603
0.0002905992
0.00025345986
0.00021993344
0.00018986279
0.00016305948
0.00013931339
0.00011840077
0.00010009101
8.4152289e-05
7.035622e-05
5.8481612e-05
4.83174e-05
3.9664846e-05
3.2339085e-05
2.6170093e-05
2.1003133e-05
1.6698874e-05
1.3132842e-05
1.0195545e-05
7.7897613e-06
5.8348017e-06
4.2524395e-06
2.9980875e-06
1.9856758e-06
1.2524713e-06
6.1528196e-07
3.9478587e-07
1.5857803e-07
0.00054832174
0.00063505171
0.00070856099
0.00076866543
0.00081359454
0.00084359784
0.00085896184
0.00086038444
0.00084927593
0.00082743638
0.00079674074
0.00075905237
0.00071617309
0.00066976065
0.0006212725
0.00057195164
0.00052283154
0.00047474714
0.00042835167
0.00038413765
0.00034245881
0.00030355089
0.00026755074
0.00023451358
0.00020442812
0.00017723
0.00015281332
0.00013104079
0.00011175243
9.4773122e-05
7.9919028e-05
6.7002978e-05
5.5838976e-05
4.6245824e-05
3.8049982e-05
3.1087714e-05
2.520661e-05
2.0266536e-05
1.6140184e-05
1.2712971e-05
9.8833547e-06
7.560867e-06
5.6694431e-06
4.1365552e-06
2.9173299e-06
1.9362381e-06
1.2144949e-06
6.0645902e-07
3.4175295e-07
1.1392068e-07
0.00033666969
0.00040792894
0.00047300276
0.00053096138
0.00057906455
0.00061642783
0.00064263947
0.0006576712
0.00066203372
0.00065667954
0.00064280223
0.00062171892
0.00059480114
0.00056340021
0.00052878191
0.00049208804
0.00045431947
0.00041632991
0.00037882751
0.00034238284
0.00030744089
0.00027433453
0.00024329852
0.00021448317
0.00018796729
0.0001637702
0.00014186255
0.00012217623
0.00010461315
8.9052939e-05
7.5359851e-05
6.3388585e-05
5.2989313e-05
4.4011852e-05
3.6309058e-05
2.9739507e-05
2.4169517e-05
1.9474568e-05
1.5540274e-05
1.2262725e-05
9.5489999e-06
7.3159125e-06
5.4925509e-06
4.0122981e-06
2.8306172e-06
1.8821499e-06
1.1734173e-06
5.9504048e-07
2.9401598e-07
8.661089e-08
0.00019238334
0.00024553943
0.00029788235
0.00034800619
0.00039297295
0.00043127462
0.0004619636
0.0004844608
0.00049861108
0.00050467639
0.00050322997
0.00049505434
0.00048106891
0.0004622635
0.0004396368
0.00041414932
0.00038669073
0.00035805983
0.00032895397
0.00029996564
0.00027158441
0.00024420259
0.00021812297
0.00019356787
0.00017068868
0.00014957544
0.00013026606
0.00011275518
9.7002252e-05
8.2939115e-05
7.0476699e-05
5.9511058e-05
4.9928625e-05
4.1610714e-05
3.4437303e-05
2.8290122e-05
2.3055101e-05
1.86242e-05
1.4896768e-05
1.1780292e-05
9.1911341e-06
7.0539082e-06
5.3034107e-06
3.8791215e-06
2.7376084e-06
1.8230355e-06
1.1294073e-06
5.8048824e-07
2.5247207e-07
7.349104e-08
0.00010267268
0.00013767957
0.00017550832
0.00021459189
0.00025225721
0.00028680295
0.00031699071
0.00034189195
0.00036090817
0.00037379509
0.00038061946
0.00038169107
0.00037750306
0.00036867772
0.00035591339
0.00033993832
0.00032147384
0.00030120573
0.00027976436
0.00025771254
0.00023553915
0.00021365724
0.00019240551
0.00017205218
0.0001528004
0.00013479473
0.00011812799
0.0001028483
8.8966064e-05
7.6460637e-05
6.5286566e-05
5.5379375e-05
4.6660756e-05
3.904316e-05
3.2433766e-05
2.6737825e-05
2.1861411e-05
1.771359e-05
1.4208088e-05
1.1264415e-05
8.8088103e-06
6.774174e-06
5.1015618e-06
3.7367196e-06
2.6381729e-06
1.7587847e-06
1.0828075e-06
5.625931e-07
2.1744627e-07
7.0099063e-08
5.5471525e-05
7.3925778e-05
9.7327352e-05
0.0001241844
0.00015230423
0.00018008371
0.00020623252
0.00022967535
0.00024957284
0.00026535888
0.00027673512
0.00028363676
0.00028619369
0.00028469203
0.00027953418
0.00027119929
0.00026020821
0.00024709401
0.00023237767
0.00021654986
0.00020005859
0.00018330128
0.00016662069
0.00015030373
0.00013458268
0.00011963814
0.00010560303
9.2567406e-05
8.0583741e-05
6.9672271e-05
5.9826365e-05
5.1017666e-05
4.3200914e-05
3.6318346e-05
3.0303636e-05
2.5085315e-05
2.0589675e-05
1.674316e-05
1.3474276e-05
1.0715003e-05
8.4019366e-06
6.4766778e-06
4.8870477e-06
3.5852115e-06
2.5325201e-06
1.689646e-06
1.034145e-06
5.4153384e-07
1.8882011e-07
7.1768089e-08
4.0174548e-05
4.4541744e-05
5.4813156e-05
6.9705979e-05
8.7562624e-05
0.00010703566
0.00012695764
0.00014627507
0.00016407722
0.0001796411
0.00019244751
0.00020217239
0.00020866919
0.00021194729
0.0002121466
0.00020950905
0.00020434981
0.00019703078
0.00018793706
0.00017745695
0.00016596589
0.00015381467
0.00014132108
0.00012876465
0.00011638398
0.00010437621
9.2898099e-05
8.2068356e-05
7.1970836e-05
6.2658307e-05
5.4156543e-05
4.6468518e-05
3.9578551e-05
3.3456259e-05
2.8060227e-05
2.3341306e-05
1.9245516e-05
1.5716521e-05
1.2697671e-05
1.0133617e-05
7.9716169e-06
6.1622669e-06
4.6605708e-06
3.4252386e-06
2.4212574e-06
1.6162519e-06
9.8410924e-07
5.1785959e-07
1.6617667e-07
7.4652073e-08
4.7928837e-05
4.0972353e-05
4.0058946e-05
4.4162463e-05
5.2124055e-05
6.2907821e-05
7.5565166e-05
8.9177906e-05
0.00010288911
0.00011595081
0.00012775053
0.00013781883
0.00014582812
0.00015158623
0.00015502467
0.00015618212
0.00015518483
0.00015222608
0.0001475464
0.00014141521
0.0001341145
0.00012592523
0.00011711658
0.00010793779
9.861259e-05
8.9335643e-05
8.0270939e-05
7.1551644e-05
6.3281169e-05
5.5535129e-05
4.8363942e-05
4.1795831e-05
3.5840041e-05
3.0490102e-05
2.5727007e-05
2.1522199e-05
1.7840299e-05
1.4641507e-05
1.188368e-05
9.5240296e-06
7.5205356e-06
5.8329181e-06
4.4236423e-06
3.2580362e-06
2.3054102e-06
1.5395806e-06
9.3348831e-07
4.9237552e-07
1.4887688e-07
7.6332072e-08
7.1622971e-05
5.6031577e-05
4.6108255e-05
4.1074411e-05
4.0189575e-05
4.2720524e-05
4.7967109e-05
5.5203389e-05
6.3703408e-05
7.2786161e-05
8.184496e-05
9.036275e-05
9.7921052e-05
0.00010420454
0.00010900045
0.00011219266
0.0001137516
0.0001137214
0.00011220571
0.00010935313
0.00010534317
0.00010037329
9.4647504e-05
8.8367077e-05
8.1722991e-05
7.4890414e-05
6.8024843e-05
6.1259859e-05
5.4706183e-05
4.8451844e-05
4.2563208e-05
3.7086643e-05
3.2050644e-05
2.7468214e-05
2.333937e-05
1.9653634e-05
1.6392418e-05
1.3531221e-05
1.1041594e-05
8.8928281e-06
7.0533867e-06
5.4920228e-06
4.1787551e-06
3.0855152e-06
2.1864441e-06
1.4609102e-06
8.8311981e-07
4.6601029e-07
1.3610122e-07
7.5864907e-08
0.00010571641
8.3894801e-05
6.7087631e-05
5.4726376e-05
4.6394462e-05
4.1618237e-05
3.9931427e-05
4.0811929e-05
4.3698892e-05
4.8030982e-05
5.3273374e-05
5.8934641e-05
6.4580007e-05
6.98421e-05
7.442775e-05
7.8120131e-05
8.0776686e-05
8.2323705e-05
8.2748448e-05
8.2089607e-05
8.042694e-05
7.7870746e-05
7.4551767e-05
7.0611995e-05
6.619673e-05
6.1447966e-05
5.6499198e-05
5.1471581e-05
4.6471392e-05
4.1588594e-05
3.6896396e-05
3.2451581e-05
2.8295463e-05
2.4455286e-05
2.0945922e-05
1.7771723e-05
1.4928424e-05
1.2404995e-05
1.0185374e-05
8.2500296e-06
6.5773308e-06
5.1447037e-06
3.9295836e-06
2.9103621e-06
2.0662955e-06
1.3817726e-06
8.3385489e-07
4.3968279e-07
1.2688197e-07
7.3373587e-08
0.00014600015
0.00011997744
9.820237e-05
8.0270748e-05
6.5999165e-05
5.51177e-05
4.7356091e-05
4.2378123e-05
3.9789791e-05
3.9169216e-05
4.0088499e-05
4.2128364e-05
4.4891406e-05
4.8014782e-05
5.1180623e-05
5.4123054e-05
5.6631787e-05
5.8552622e-05
5.9785267e-05
6.0278946e-05
6.0026337e-05
5.9056438e-05
5.7426937e-05
5.5216549e-05
5.2517758e-05
4.9430281e-05
4.6055396e-05
4.2491299e-05
3.8829474e-05
3.5152096e-05
3.1530343e-05
2.802355e-05
2.4679043e-05
2.1532549e-05
1.8609021e-05
1.5923773e-05
1.3483793e-05
1.1289134e-05
9.334313e-06
7.6096403e-06
6.1024404e-06
4.7981488e-06
3.6812167e-06
2.7361807e-06
1.9474475e-06
1.3039579e-06
7.8658131e-07
4.1423576e-07
1.2020416e-07
6.9476419e-08
0.0001893469
0.00016076133
0.00013564936
0.0001137286
9.4971341e-05
7.9256104e-05
6.6462967e-05
5.6408623e-05
4.8847359e-05
4.3492932e-05
4.0034527e-05
3.8147408e-05
3.7503659e-05
3.7783849e-05
3.868797e-05
3.9944398e-05
4.1316562e-05
4.2607308e-05
4.3660975e-05
4.4363325e-05
4.4639558e-05
4.4450797e-05
4.3789453e-05
4.2673908e-05
4.1142891e-05
3.9249899e-05
3.705797e-05
3.4634969e-05
3.2049569e-05
2.9367968e-05
2.6651381e-05
2.3954274e-05
2.1323265e-05
1.879663e-05
1.6404299e-05
1.416824e-05
1.2103139e-05
1.0217264e-05
8.5134368e-06
6.9900497e-06
5.6420516e-06
4.4619023e-06
3.4403806e-06
2.5676469e-06
1.8330297e-06
1.2295588e-06
7.4228632e-07
3.9042931e-07
1.1516222e-07
6.4836607e-08
0.0002334834
0.00020360944
0.00017648871
0.00015192606
0.00012998874
0.00011065598
9.3914266e-05
7.9695949e-05
6.7875314e-05
5.8283838e-05
5.0720784e-05
4.4959647e-05
4.075543e-05
3.7853704e-05
3.600006e-05
3.4948791e-05
3.4470402e-05
3.4357758e-05
3.4430683e-05
3.4538867e-05
3.4563079e-05
3.4414832e-05
3.4034695e-05
3.338956e-05
3.2469135e-05
3.1281989e-05
2.985141e-05
2.821135e-05
2.6402622e-05
2.4469535e-05
2.2457008e-05
2.0408276e-05
1.8363131e-05
1.6356725e-05
1.441885e-05
1.2573644e-05
1.0839641e-05
9.2300933e-06
7.7534744e-06
6.4141177e-06
5.2129091e-06
4.148024e-06
3.2155885e-06
2.4106338e-06
1.7269191e-06
1.161047e-06
7.0215247e-07
3.6899452e-07
1.1113093e-07
5.9962215e-08
0.00027679678
0.00024659162
0.00021850283
0.00019239666
0.000168391
0.00014652807
0.00012686351
0.00010941041
9.41327e-05
8.095543e-05
6.9771196e-05
6.0443026e-05
5.2808302e-05
4.6684763e-05
4.1877533e-05
3.8186182e-05
3.5411516e-05
3.3361836e-05
3.1858431e-05
3.0740021e-05
2.9865988e-05
2.9118338e-05
2.840243e-05
2.7646594e-05
2.6800779e-05
2.5834464e-05
2.4734027e-05
2.3499813e-05
2.21431e-05
2.0683129e-05
1.9144365e-05
1.7554051e-05
1.5940164e-05
1.4329769e-05
1.2747794e-05
1.121619e-05
9.7534441e-06
8.3743832e-06
7.0902261e-06
5.9088158e-06
4.8349836e-06
3.8710185e-06
3.0171327e-06
2.2722396e-06
1.633786e-06
1.1013299e-06
6.6763636e-07
3.5070167e-07
1.0786082e-07
5.5197105e-08
0.00031817676
0.00028833225
0.00026006076
0.00023327178
0.00020810346
0.00018463336
0.00016295721
0.00014313962
0.00012520636
0.00010915128
9.4939718e-05
8.250891e-05
7.1769205e-05
6.2607298e-05
5.4890697e-05
4.847265e-05
4.3197355e-05
3.8905257e-05
3.5438205e-05
3.2644184e-05
3.038139e-05
2.8521468e-05
2.6951853e-05
2.5577158e-05
2.4319658e-05
2.3118947e-05
2.1930906e-05
2.0726129e-05
1.9487968e-05
1.8210375e-05
1.6895669e-05
1.5552376e-05
1.4193223e-05
1.2833375e-05
1.148895e-05
1.0175837e-05
8.9088107e-06
7.7009251e-06
6.5631594e-06
5.5042751e-06
4.5308451e-06
3.6474358e-06
2.8568442e-06
2.1606548e-06
1.5590351e-06
1.0537504e-06
6.4049936e-07
3.3641319e-07
1.0546404e-07
5.0776771e-08
0.00035689045
0.00032788286
0.00029999685
0.00027317286
0.00024754992
0.00022322186
0.00020030341
0.00017888816
0.00015904079
0.00014080169
0.00012418866
0.00010919561
9.5792043e-05
8.3924134e-05
7.3516964e-05
6.44774e-05
5.6697477e-05
5.0058211e-05
4.4433711e-05
3.9695316e-05
3.5715567e-05
3.2371802e-05
2.9549239e-05
2.714342e-05
2.5061963e-05
2.3225598e-05
2.156853e-05
2.0038182e-05
1.8594428e-05
1.7208431e-05
1.5861208e-05
1.4542033e-05
1.3246803e-05
1.1976446e-05
1.0735457e-05
9.5305966e-06
8.3698043e-06
7.2613257e-06
6.2130573e-06
5.232096e-06
4.324471e-06
3.4950504e-06
2.7475422e-06
2.0848119e-06
1.5085965e-06
1.0219854e-06
6.2275795e-07
3.2709054e-07
1.0430634e-07
4.6865627e-08
0.00039248425
0.0003646184
0.00033750674
0.0003111128
0.00028556504
0.00026096121
0.00023742084
0.00021505024
0.00019393543
0.00017414533
0.00015573235
0.00013873039
0.00012315324
0.00010899424
9.6226909e-05
8.4806075e-05
7.4669648e-05
6.5740873e-05
5.7931111e-05
5.1142924e-05
4.5273343e-05
4.0217109e-05
3.5869783e-05
3.2130537e-05
2.8904556e-05
2.6104929e-05
2.3654017e-05
2.1484271e-05
1.9538535e-05
1.776989e-05
1.61411e-05
1.4623773e-05
1.3197304e-05
1.1847705e-05
1.0566395e-05
9.3490244e-06
8.1943866e-06
7.1034547e-06
6.0785681e-06
5.1227807e-06
4.2393714e-06
3.4315211e-06
2.7021006e-06
2.053758e-06
1.4885236e-06
1.0098135e-06
6.1654178e-07
3.2374452e-07
1.0486614e-07
4.3568552e-08
0.00042470653
0.00039815306
0.00037205996
0.00034640886
0.0003213118
0.00029686307
0.00027317809
0.00025036503
0.00022851875
0.00020772304
0.00018805066
0.00016956122
0.00015229905
0.00013629208
0.00012155141
0.00010807128
9.5829491e-05
8.4788367e-05
7.489626e-05
6.6089448e-05
5.8294422e-05
5.1430374e-05
4.5411825e-05
4.0151219e-05
3.5561405e-05
3.1557858e-05
2.8060595e-05
2.4995688e-05
2.2296374e-05
1.9903734e-05
1.7766978e-05
1.5843371e-05
1.4097865e-05
1.2502487e-05
1.1035577e-05
9.6809242e-06
8.4268716e-06
7.265442e-06
6.1915246e-06
5.2021553e-06
4.29591e-06
3.4724309e-06
2.732052e-06
2.0756932e-06
1.5043574e-06
1.0207225e-06
6.2385155e-07
3.2732611e-07
1.0760745e-07
4.0937635e-08
0.00045344771
0.00042827358
0.0004033284
0.00037860893
0.00035420845
0.00033021392
0.00030673168
0.00028386508
0.00026170953
0.0002403541
0.00021988136
0.00020036534
0.00018186942
0.00016444484
0.0001481297
0.00013294818
0.0001189101
0.00010601094
9.4232204e-05
8.3542358e-05
7.3898044e-05
6.5245701e-05
5.7523445e-05
5.0663122e-05
4.459245e-05
3.9237146e-05
3.4522943e-05
3.0377409e-05
2.6731512e-05
2.352088e-05
2.0686731e-05
1.8176468e-05
1.5943966e-05
1.3949572e-05
1.2159873e-05
1.0547276e-05
9.0894523e-06
7.7687141e-06
6.5713485e-06
5.4869725e-06
4.5079276e-06
3.628757e-06
2.8457438e-06
2.1566743e-06
1.5602509e-06
1.0573536e-06
6.4622019e-07
3.3856238e-07
1.1288246e-07
3.8983368e-08
0.00047868873
0.00045488134
0.0004311232
0.00040742448
0.00038385957
0.00036050659
0.00033746052
0.00031481633
0.00029266496
0.00027109459
0.00025019028
0.00023003235
0.00021069433
0.00019224158
0.00017472994
0.00015820466
0.00014269944
0.0001282358
0.0001148227
0.00010245668
9.112216e-05
8.0792273e-05
7.1429901e-05
6.2989055e-05
5.5416451e-05
4.8653233e-05
4.2636768e-05
3.7302423e-05
3.2585254e-05
2.8421539e-05
2.4750104e-05
2.1513403e-05
1.8658336e-05
1.61368e-05
1.3905985e-05
1.1928449e-05
1.017199e-05
8.6093756e-06
7.2179562e-06
5.9792134e-06
4.8782793e-06
3.9034687e-06
3.045823e-06
2.2988166e-06
1.6577404e-06
1.1207086e-06
6.8423857e-07
3.5771916e-07
1.2084053e-07
3.7684231e-08
0.00050046723
0.00047795318
0.00045535074
0.00043268268
0.00041000557
0.00038738854
0.00036491486
0.00034266964
0.00032073687
0.0002992002
0.00027814268
0.00025764539
0.00023778577
0.00021863634
0.00020026335
0.00018272562
0.00016607331
0.00015034697
0.00013557678
0.00012178195
0.00010897054
9.713952e-05
8.6275092e-05
7.6353403e-05
6.7341472e-05
5.9198376e-05
5.1876617e-05
4.5323609e-05
3.9483228e-05
3.4297342e-05
2.9707286e-05
2.5655199e-05
2.2085192e-05
1.8944317e-05
1.6183328e-05
1.3757201e-05
1.1625468e-05
9.7523421e-06
8.1066838e-06
6.6618421e-06
5.3953929e-06
4.2888269e-06
3.3271864e-06
2.4988048e-06
1.7947109e-06
1.2094803e-06
7.3716084e-07
3.84411e-07
1.3137914e-07
3.6994314e-08
0.00051882594
0.00049748401
0.0004759499
0.00045425858
0.0004324505
0.00041058659
0.00038873912
0.00036698345
0.00034539572
0.00032405345
0.00030303519
0.00028241956
0.00026228386