/*--------------------------------*- C++ -*----------------------------------*\
  =========                 |
  \\      /  F ield         | OpenFOAM: The Open Source CFD Toolbox
   \\    /   O peration     | Website:  https://openfoam.org
    \\  /    A nd           | Version:  6
     \\/     M anipulation  |
\*---------------------------------------------------------------------------*/
FoamFile
{
    version     2.0;
    format      ascii;
    class       volScalarField;
    location    "304";
    object      pPrime2Mean;
}
// * * * * * * * * * * * * * * * * * * * * * * * * * * * * * * * * * * * * * //

dimensions      [0 4 -4 0 0 0 0];

internalField   nonuniform List<scalar> 
9200
(
0.037040269
0.030709683
0.025349773
0.021859819
0.019073627
0.016724854
0.014697774
0.012933347
0.01139227
0.01004308
0.0088597258
0.007820383
0.006906634
0.0061028419
0.0053956621
0.0047736844
0.0042272492
0.0037482937
0.003330779
0.0029667663
0.030052398
0.024870412
0.02053662
0.017687413
0.015400933
0.013467623
0.011796573
0.010341394
0.0090708456
0.0079597584
0.0069871293
0.006135203
0.0053888407
0.0047350353
0.0041625372
0.003661588
0.0032237797
0.0028418591
0.0025090297
0.0022155925
0.023499958
0.019422806
0.016052725
0.0138069
0.01198995
0.010445986
0.0091078886
0.0079415135
0.0069235572
0.0060349747
0.0052595645
0.0045833266
0.00399404
0.0034809506
0.003034548
0.0026464196
0.0023091674
0.0020162504
0.0017610814
0.001535029
0.017564622
0.014513604
0.012015792
0.010318725
0.0089282014
0.0077371589
0.0067005716
0.0057958035
0.0050070549
0.0043209236
0.0037254828
0.00320995
0.00276452
0.0023802728
0.0020491352
0.0017638685
0.0015180542
0.0013059909
0.0011220466
0.00095968838
0.012410044
0.010274678
0.0085341892
0.0073164028
0.0062980788
0.0054147471
0.0046411428
0.0039650217
0.0033772955
0.0028694026
0.0024329132
0.0020595688
0.0017414242
0.0014710064
0.0012414585
0.0010466405
0.00088116476
0.00074033742
0.00061981826
0.00051522125
0.0081804399
0.0068209174
0.0057040164
0.004883553
0.0041738185
0.0035456484
0.0029905819
0.0025052148
0.0020859931
0.0017281065
0.0014256773
0.0011722288
0.00096115883
0.00078613048
0.00064135052
0.00052172608
0.00042290409
0.00034122301
0.00027358477
0.00021727553
0.0049964066
0.0042475012
0.0036069937
0.0030921107
0.002619913
0.002188514
0.0018026989
0.0014659217
0.0011786621
0.00093860125
0.0007414349
0.00058178625
0.00045397411
0.0003525633
0.000272697
0.00021024274
0.00016179685
0.00012462043
9.6618958e-05
7.6202825e-05
0.002951866
0.0026280254
0.002308975
0.0020009418
0.0016896994
0.001392197
0.0011223975
0.00088829627
0.000692725
0.00053457512
0.00041022124
0.00031482147
0.00024328468
0.00019087747
0.0001535281
0.00012791298
0.00011140778
0.00010199949
9.8293296e-05
9.9353428e-05
0.0021114568
0.0020124333
0.0018571857
0.0016528467
0.0014226051
0.0011934563
0.00098389463
0.0008038285
0.00065669086
0.00054142016
0.00045436421
0.00039081727
0.00034603866
0.00031580956
0.00029665024
0.00028582868
0.00028126365
0.00028141738
0.00028527441
0.00029216761
0.002507756
0.0024253625
0.0022773363
0.0020717854
0.0018415177
0.0016142186
0.001407787
0.0012313124
0.0010872152
0.00097356599
0.00088620355
0.00082029405
0.00077124795
0.00073514333
0.00070883833
0.00068991254
0.00067654314
0.00066738601
0.00066148861
0.00065812225
0.087832868
0.073872293
0.06105464
0.052949405
0.046513561
0.041111381
0.03646021
0.032407563
0.028859033
0.025740427
0.022991132
0.02056097
0.018407907
0.016496413
0.01479623
0.013281441
0.011929743
0.010721156
0.0096369221
0.0086661895
0.086715326
0.072860924
0.060190023
0.052177868
0.045822629
0.040489294
0.035897708
0.031897893
0.028396524
0.025320121
0.022608646
0.020212401
0.018089774
0.016205595
0.01452993
0.013037159
0.011705268
0.010514573
0.0094462049
0.0084896863
0.084435769
0.070858565
0.058504764
0.0506918
0.044501592
0.039307818
0.034836354
0.030941917
0.027533631
0.024539781
0.021901731
0.019570927
0.017506713
0.015674738
0.014045775
0.012594829
0.011300483
0.010143638
0.0091054842
0.0081757304
0.081034011
0.067913834
0.056047548
0.048537328
0.042592207
0.037604759
0.033310754
0.029571545
0.026299926
0.023426939
0.020896143
0.018660771
0.016681642
0.014925658
0.013364656
0.011974562
0.010734793
0.0096270948
0.0086330375
0.0077421982
0.076602909
0.064110278
0.052889543
0.045778101
0.040151575
0.035431596
0.031367655
0.027829463
0.024734568
0.022017656
0.01962521
0.017512836
0.01564332
0.013985205
0.012511725
0.011199983
0.010030408
0.0089857875
0.008048603
0.0072081625
0.071268683
0.059558555
0.04912305
0.042495451
0.037252153
0.032853238
0.029065463
0.025768395
0.022885284
0.020355238
0.018128304
0.016162987
0.014424469
0.012883296
0.011514391
0.010296267
0.0092104949
0.008241004
0.0073717856
0.006592202
0.065184584
0.054391382
0.044857333
0.038784767
0.033978498
0.029945114
0.026471681
0.023448849
0.020806386
0.018488483
0.016449295
0.014650686
0.01306062
0.011651973
0.01040163
0.0092897353
0.0082991451
0.007414933
0.0066230406
0.0059135922
0.058525356
0.048758836
0.040215105
0.034752558
0.030424654
0.026790809
0.023660796
0.020937279
0.018557195
0.016470353
0.014635468
0.01301815
0.011589484
0.01032498
0.009203746
0.0082078005
0.0073214867
0.0065310902
0.0058247549
0.0051940709
0.051480902
0.042822745
0.035328082
0.030512546
0.02669065
0.023478955
0.020711534
0.018303637
0.01619986
0.014356055
0.012735852
0.011308925
0.010049766
0.0089367693
0.0079515121
0.007078127
0.0063027307
0.0056130906
0.0049998359
0.0044560681
0.044249406
0.036752165
0.030332274
0.026180694
0.022877666
0.020098682
0.017702667
0.015617646
0.013796186
0.012200448
0.010799215
0.0095664222
0.0084801361
0.0075217913
0.0066755867
0.0059279916
0.0052673552
0.0046838602
0.0041714297
0.0037234874
0.0076422097
0.0066214591
0.005756105
0.0050049777
0.0043634469
0.0038140554
0.0033416535
0.0029332442
0.0025782609
0.0022681227
0.0019958801
0.0017559661
0.0015439129
0.0013560879
0.0011894972
0.0010416414
0.00091040555
0.00079397553
0.00069077683
0.00059942864
0.00051870882
0.00044752704
0.0003849039
0.00032995469
0.00028187693
0.00023994055
0.00020348028
0.00017188955
0.00014461565
0.00012115564
0.00010105294
8.3894243e-05
6.9306776e-05
5.69556e-05
4.6541141e-05
3.7796632e-05
3.048577e-05
2.4400173e-05
1.9357297e-05
1.5197546e-05
1.1783582e-05
8.9942012e-06
6.7329305e-06
4.8993629e-06
3.4533623e-06
2.263385e-06
1.4382345e-06
6.6292439e-07
8.7061515e-07
1.4498829e-06
0.0074940532
0.0065071063
0.0056664746
0.0049343387
0.0043084028
0.0037716013
0.0033089349
0.0029078966
0.0025584592
0.0022524697
0.0019833357
0.0017457844
0.0015355647
0.0013491929
0.0011837755
0.0010368815
0.00090644239
0.00079067671
0.0006880338
0.00059715113
0.00051682107
0.00044596519
0.00038361405
0.00032889139
0.00028100189
0.00023922162
0.00020289052
0.0001714065
0.00014422059
0.00012083303
0.00010078992
8.3680197e-05
6.9132933e-05
5.6814741e-05
4.6427325e-05
3.7704973e-05
3.041225e-05
2.4341492e-05
1.9310742e-05
1.5160892e-05
1.1755003e-05
8.9722064e-06
6.7163056e-06
4.8871405e-06
3.4447558e-06
2.2577719e-06
1.4352597e-06
6.6114966e-07
8.6548781e-07
1.4220674e-06
0.00723338
0.0063072527
0.0055113649
0.0048140666
0.0042161375
0.0037015382
0.0032557376
0.0028672057
0.0025269851
0.0022277704
0.0019636409
0.0017298517
0.00152253
0.001338444
0.0011748666
0.0010294779
0.00090028402
0.00078555538
0.00068377898
0.000593621
0.00051389668
0.00044354633
0.00038161624
0.00032724354
0.00027964426
0.00023810419
0.00020197157
0.00017065131
0.00014360039
0.00012032406
0.00010037256
8.3338295e-05
6.8853216e-05
5.6586293e-05
4.6241169e-05
3.7553723e-05
3.028982e-05
2.4242858e-05
1.9231758e-05
1.5098129e-05
1.1705629e-05
8.9338836e-06
6.6871183e-06
4.8655352e-06
3.4294837e-06
2.2477852e-06
1.4300435e-06
6.5801425e-07
8.5523876e-07
1.3677309e-06
0.0068762276
0.0060342727
0.0053019452
0.0046549859
0.0040963246
0.0036118712
0.0031884284
0.0028160956
0.0024875758
0.0021968665
0.0019390004
0.0017099249
0.001506244
0.0013250379
0.0011637821
0.0010202917
0.00089266494
0.00077923739
0.00067854402
0.00058928811
0.00051031462
0.00044058825
0.00037917573
0.0003252315
0.0002779863
0.00023673835
0.00020084646
0.00016972443
0.00014283673
0.00011969481
9.9854097e-05
8.291126e-05
6.8501741e-05
5.6297373e-05
4.6004122e-05
3.7359761e-05
3.0131686e-05
2.411455e-05
1.9128288e-05
1.5015354e-05
1.1640095e-05
8.8827223e-06
6.6479573e-06
4.8364324e-06
3.4088646e-06
2.2343216e-06
1.4230353e-06
6.5389714e-07
8.3986002e-07
1.2896529e-06
0.0064383303
0.0057007449
0.005049689
0.0044680971
0.0039586532
0.0035103134
0.0031128387
0.0027588987
0.0024434467
0.0021621984
0.0019113459
0.0016875986
0.0014880635
0.0013101497
0.0011515487
0.0010102213
0.00088436929
0.00077240373
0.00067291691
0.00058465702
0.00050650518
0.00043745574
0.00037660003
0.0003231131
0.00027624301
0.00023530249
0.00019966247
0.00016874688
0.00014202853
0.0001190258
9.9299751e-05
8.2451655e-05
6.8120673e-05
5.5981634e-05
4.5742906e-05
3.7144188e-05
2.9954421e-05
2.3969496e-05
1.9010357e-05
1.4920274e-05
1.1564281e-05
8.8231528e-06
6.6021122e-06
4.8022262e-06
3.3845694e-06
2.2185133e-06
1.4147868e-06
6.4928403e-07
8.1949506e-07
1.1919173e-06
0.0059330921
0.005318076
0.0047649226
0.0042623305
0.0038101862
0.0034018008
0.003032175
0.0026977595
0.0023961771
0.0021250563
0.0018818229
0.0016639369
0.0014689877
0.0012947114
0.0011390245
0.0010000471
0.00087609795
0.00076567693
0.0006674451
0.00058020488
0.0005028809
0.00043450284
0.00037419094
0.00032114397
0.00027462963
0.00023397679
0.00019856961
0.00016784284
0.0001412781
0.00011840086
9.8777866e-05
8.2014916e-05
6.7754741e-05
5.5674977e-05
4.548618e-05
3.6929756e-05
2.9775974e-05
2.3821773e-05
1.8888919e-05
1.4821353e-05
1.1484656e-05
8.7600677e-06
6.5532212e-06
4.7655662e-06
3.3584389e-06
2.2015999e-06
1.4058763e-06
6.4469323e-07
7.9437556e-07
1.0794809e-06
0.0053735925
0.0048976689
0.0044568321
0.0040430625
0.0036532175
0.0032867879
0.0029460784
0.002632289
0.0023457375
0.0020858059
0.0018510835
0.0016397619
0.0014499155
0.0012796307
0.0011270822
0.00099058101
0.00086858939
0.00075971738
0.00066271138
0.00057644046
0.00049988189
0.00043210723
0.00037227018
0.00031959642
0.00027337521
0.00023295279
0.00019772717
0.00016714411
0.0001406939
0.00011790879
9.8360788e-05
8.1659684e-05
6.7451239e-05
5.5415347e-05
4.5264225e-05
3.6740496e-05
2.9615304e-05
2.3686235e-05
1.8775532e-05
1.4727503e-05
1.1408028e-05
8.698596e-06
6.5050815e-06
4.7291981e-06
3.3323604e-06
2.1848357e-06
1.3968591e-06
6.406231e-07
7.6481398e-07
9.5770562e-07
0.0047761549
0.004452548
0.0041324628
0.0038095096
0.0034828715
0.0031601826
0.0028507874
0.0025602591
0.0022912154
0.0020444781
0.0018197238
0.0016159559
0.0014318409
0.0012659084
0.0011166694
0.00098268684
0.00086261171
0.00075519617
0.0006592944
0.00057385767
0.00049792624
0.00043062034
0.0003711314
0.00031871442
0.00027268147
0.00023239646
0.00019727108
0.0001667615
0.00014036587
0.00011762227
9.8106974e-05
8.1432768e-05
6.7247473e-05
5.5232333e-05
4.5100389e-05
3.6594727e-05
2.9486703e-05
2.3573963e-05
1.8678724e-05
1.4645233e-05
1.1339311e-05
8.6424055e-06
6.4603764e-06
4.6950407e-06
3.3076171e-06
2.1690585e-06
1.3880154e-06
6.3740412e-07
7.3116246e-07
8.3197372e-07
0.0041569994
0.0039882781
0.0037843462
0.0035447149
0.003280732
0.0030069564
0.002735396
0.0024739103
0.002227003
0.0019969456
0.0017846367
0.0015901118
0.0014128493
0.0012519915
0.0011065078
0.00097530216
0.00085727724
0.0007513706
0.00065657366
0.00057193972
0.00049658547
0.00042968873
0.00037048458
0.00031826127
0.00027235617
0.00023215245
0.0001970763
0.00016659474
0.00014021386
0.00011747744
9.796566e-05
8.1293916e-05
6.7111607e-05
5.5100825e-05
4.4974937e-05
3.6477008e-05
2.9378153e-05
2.3475671e-05
1.8591386e-05
1.4569164e-05
1.12745e-05
8.5885663e-06
6.4170103e-06
4.6616376e-06
3.2832038e-06
2.1536193e-06
1.3787821e-06
6.3489125e-07
6.9394137e-07
7.0781062e-07
0.0035409925
0.0034906114
0.0033793713
0.0032179949
0.0030233497
0.0028093394
0.0025861395
0.0023622757
0.0021441323
0.0019358061
0.0017397271
0.001557227
0.0013888398
0.0012345212
0.0010938502
0.00096618364
0.00085075781
0.00074675492
0.0006533458
0.00056971596
0.00049508017
0.0004286896
0.00036983465
0.00031784548
0.00027209141
0.00023197986
0.0001969554
0.00016649878
0.00014012625
0.00011738885
9.7871858e-05
8.1194017e-05
6.7006803e-05
5.4993433e-05
4.4867711e-05
3.6372689e-05
2.9279175e-05
2.3384013e-05
1.8508503e-05
1.4495992e-05
1.1211518e-05
8.5358585e-06
6.3743409e-06
4.6286865e-06
3.2590212e-06
2.1384243e-06
1.3690897e-06
6.3294265e-07
6.5455879e-07
5.9104113e-07
0.0028710091
0.0028887567
0.0028529291
0.0027664718
0.0026451576
0.0024991309
0.0023353904
0.0021615327
0.0019845591
0.0018096225
0.001640282
0.001478996
0.0013273414
0.001186174
0.0010558188
0.00093623845
0.00082715315
0.00072812655
0.00063862785
0.00055807507
0.00048586382
0.00042138597
0.00036404157
0.00031324642
0.00026843689
0.0002290731
0.00019464106
0.00016465422
0.00013865459
0.0001162136
9.6932568e-05
8.0442917e-05
6.6406103e-05
5.4513193e-05
4.4484168e-05
3.6066934e-05
2.9036117e-05
2.3191572e-05
1.8356974e-05
1.4377572e-05
1.1119885e-05
8.4660047e-06
6.3220037e-06
4.5910543e-06
3.2324186e-06
2.1229683e-06
1.3579616e-06
6.3175329e-07
6.1350562e-07
4.8819397e-07
0.0022256619
0.0022813488
0.0022928475
0.0022598602
0.0021948928
0.0021053806
0.0019954837
0.0018710405
0.0017383064
0.0016022141
0.0014664445
0.0013338304
0.0012064586
0.0010857325
0.0009725106
0.00086724817
0.00077010436
0.00068102353
0.00059979964
0.00052612491
0.000459625
0.00039988418
0.00034646323
0.00029891229
0.00025678017
0.00021962115
0.00018700028
0.00015849733
0.00013371004
0.00011225659
9.3777491e-05
7.7936977e-05
6.4423892e-05
5.2952118e-05
4.3260569e-05
3.5112829e-05
2.8296445e-05
2.2621901e-05
1.792156e-05
1.4047811e-05
1.087286e-05
8.2837219e-06
6.1896844e-06
4.498313e-06
3.1682828e-06
2.0846389e-06
1.3308313e-06
6.2531606e-07
5.6093392e-07
3.9025496e-07
0.0016704993
0.0017513145
0.0017959369
0.0018040489
0.0017832595
0.001738983
0.0016737862
0.0015918159
0.0014982133
0.0013973826
0.0012928219
0.0011874265
0.0010835261
0.00098286763
0.0008866907
0.00079583304
0.00071081614
0.00063191422
0.00055921337
0.00049266009
0.0004320988
0.00037730045
0.00032798443
0.00028383527
0.00024451546
0.00020967543
0.00017896144
0.00015202191
0.00012851246
0.00010810006
9.0466273e-05
7.5309789e-05
6.2348282e-05
5.1319687e-05
4.1982927e-05
3.4118159e-05
2.7526614e-05
2.2030035e-05
1.7469986e-05
1.3706423e-05
1.0617568e-05
8.0956632e-06
6.053336e-06
4.4029231e-06
3.1021077e-06
2.0454055e-06
1.3016961e-06
6.1972017e-07
5.0365157e-07
2.9812226e-07
0.0012038819
0.0012978297
0.001362865
0.0013995115
0.0014111268
0.001401289
0.0013716784
0.0013249973
0.0012650558
0.0011954787
0.0011193517
0.001039378
0.00095788356
0.00087675272
0.00079744397
0.00072105263
0.00064837002
0.00057993444
0.00051607914
0.00045697522
0.00040266726
0.00035310218
0.00030815259
0.00026763553
0.00023132758
0.00019897706
0.00017031398
0.0001450582
0.0001229262
0.00010363656
8.6914539e-05
7.2495665e-05
6.0128583e-05
4.957715e-05
4.0621902e-05
3.3060942e-05
2.6710334e-05
2.1404039e-05
1.6993621e-05
1.3347244e-05
1.0349671e-05
7.8987916e-06
5.9108863e-06
4.3033729e-06
3.0329571e-06
2.0042777e-06
1.2703502e-06
6.1402572e-07
4.4579588e-07
2.1903166e-07
0.00082858247
0.00092331257
0.00099703507
0.0010502469
0.0010831785
0.0010976331
0.0010946071
0.001075677
0.001043351
0.0010003349
0.00094914138
0.00089209867
0.00083132843
0.00076866516
0.00070562682
0.00064343558
0.00058304877
0.00052518962
0.00047038005
0.00041897384
0.00037118659
0.00032712171
0.00028679263
0.00025014166
0.00021705575
0.00018737988
0.00016092817
0.00013749332
0.00011685458
9.8784427e-05
8.3054124e-05
6.9438331e-05
5.7718791e-05
4.7687237e-05
3.9147555e-05
3.1917319e-05
2.5828743e-05
2.0729123e-05
1.6480954e-05
1.2961392e-05
1.0062377e-05
7.6879559e-06
5.7584904e-06
4.1967768e-06
2.9587991e-06
1.9596289e-06
1.2360059e-06
6.0719758e-07
3.8972155e-07
1.5677587e-07
0.00054115461
0.000626731
0.00069926379
0.00075857146
0.00080290415
0.00083250775
0.00084766559
0.00084906657
0.00083810234
0.00081654921
0.00078625737
0.00074906553
0.00070675165
0.00066095152
0.00061310324
0.0005644333
0.00051596144
0.0004685115
0.00042272801
0.00037909696
0.00033796738
0.0002995719
0.00026404558
0.00023144292
0.00020175285
0.00017491188
0.00015081557
0.00012932847
0.00011029277
9.353571e-05
7.8875895e-05
6.6128659e-05
5.5110476e-05
4.5642554e-05
3.7553648e-05
3.0682183e-05
2.4877757e-05
2.0002078e-05
1.5929508e-05
1.2546965e-05
9.7542336e-06
7.4620285e-06
5.5952756e-06
4.082395e-06
2.8790904e-06
1.9108329e-06
1.1985274e-06
5.9848771e-07
3.37368e-07
1.1266896e-07
0.00033227707
0.0004025903
0.00046680097
0.000523992
0.00057145784
0.00060832548
0.00063418892
0.00064902038
0.00065332383
0.00064803922
0.00063434433
0.00061353887
0.00058697622
0.00055598979
0.00052182858
0.00048561923
0.00044834931
0.0004108612
0.00037385365
0.00033788967
0.00030340834
0.00027073813
0.00024011071
0.00021167444
0.00018550712
0.00016162784
0.0001400077
0.00012057953
0.00010324655
8.7890056e-05
7.4376097e-05
6.2561323e-05
5.2297905e-05
4.3437654e-05
3.5835378e-05
2.9351519e-05
2.3854159e-05
1.9220416e-05
1.5337406e-05
1.210258e-05
9.4242321e-06
7.2202642e-06
5.4206883e-06
3.9597577e-06
2.7935099e-06
1.8574509e-06
1.1579898e-06
5.872176e-07
2.902376e-07
8.5679863e-08
0.00018988184
0.00024233246
0.00029398141
0.00034344163
0.00038781307
0.00042560746
0.00045588986
0.00047808892
0.00049205153
0.00049803617
0.00049660852
0.00048854073
0.00047474005
0.00045618314
0.00043385547
0.00040870481
0.000381609
0.00035335624
0.00032463464
0.00029602882
0.00026802187
0.00024100092
0.00021526476
0.0001910328
0.00016845445
0.00014761859
0.00012856268
0.00011128147
9.5734981e-05
8.1855989e-05
6.955663e-05
5.8734358e-05
4.9277124e-05
4.1067824e-05
3.3988029e-05
2.7921037e-05
2.2754281e-05
1.8381146e-05
1.4702301e-05
1.1626448e-05
9.0710431e-06
6.961686e-06
5.2340232e-06
3.8283252e-06
2.7017211e-06
1.7991121e-06
1.1145599e-06
5.7285606e-07
2.4921729e-07
7.2693225e-08
0.00010134615
0.00013588782
0.00017321476
0.00021178074
0.00024894746
0.00028303591
0.00031282413
0.00033739587
0.00035616055
0.00036887708
0.00037561133
0.00037666895
0.00037253655
0.00036382816
0.00035123285
0.00033546919
0.00031724893
0.00029724876
0.00027609068
0.00025433004
0.00023244922
0.00021085584
0.00018988412
0.00016979873
0.00015080018
0.00013303115
0.00011658324
0.00010150401
8.7803743e-05
7.5462095e-05
6.4434249e-05
5.4656606e-05
4.6051913e-05
3.8533791e-05
3.2010656e-05
2.6389018e-05
2.1576193e-05
1.7482444e-05
1.4022633e-05
1.1117327e-05
8.6937305e-06
6.6856216e-06
5.034825e-06
3.6877953e-06
2.6035948e-06
1.7357078e-06
1.0685755e-06
5.5519653e-07
2.1462994e-07
6.9306858e-08
5.4761941e-05
7.2969759e-05
9.6060203e-05
0.00012256117
0.00015030852
0.0001777202
0.00020352298
0.00022665575
0.00024629023
0.00026186776
0.00027309393
0.00027990474
0.00028242834
0.00028094705
0.0002758579
0.00026763367
0.00025678828
0.00024384773
0.00022932606
0.00021370745
0.00019743396
0.00018089777
0.00016443708
0.00014833503
0.00013282087
0.00011807281
0.00010422204
9.1357488e-05
7.9530943e-05
6.8762408e-05
5.9045368e-05
5.0351869e-05
4.2637266e-05
3.5844579e-05
2.990837e-05
2.4758119e-05
2.0321098e-05
1.6524722e-05
1.3298439e-05
1.0575123e-05
8.2922009e-06
6.3920376e-06
4.8231356e-06
3.5382849e-06
2.4993373e-06
1.6674829e-06
1.0205573e-06
5.3441544e-07
1.8636093e-07
7.0917011e-08
3.966305e-05
4.3969889e-05
5.4103567e-05
6.879823e-05
8.6417872e-05
0.00010563277
0.00012529095
0.00014435281
0.00016191963
0.00017727797
0.00018991543
0.00019951223
0.00020592371
0.0002091591
0.00020935641
0.00020675434
0.00020166387
0.00019444206
0.00018546891
0.00017512755
0.00016378843
0.0001517977
0.00013946895
0.00012707802
0.00011486037
0.00010301055
9.1683266e-05
8.0995693e-05
7.1030602e-05
6.1840093e-05
5.3449626e-05
4.5862158e-05
3.9062238e-05
3.3019903e-05
2.7694296e-05
2.3036928e-05
1.8994539e-05
1.5511537e-05
1.2532022e-05
1.0001373e-05
7.8675407e-06
6.0817679e-06
4.5996465e-06
3.3804258e-06
2.3895476e-06
1.5950616e-06
9.711858e-07
5.1105484e-07
1.6400081e-07
7.3730376e-08
4.7312811e-05
4.044552e-05
3.9542029e-05
4.3589739e-05
5.1444868e-05
6.2085138e-05
7.4574504e-05
8.800691e-05
0.00010153673
0.00011442584
0.00012606983
0.00013600544
0.00014390938
0.00014959198
0.00015298562
0.00015412844
0.00015314497
0.00015022592
0.00014560859
0.00013955881
0.00013235484
0.00012427392
0.00011558163
0.00010652394
9.7321623e-05
8.8166783e-05
7.9221261e-05
7.0616482e-05
6.2454515e-05
5.481e-05
4.7732713e-05
4.1250526e-05
3.5372583e-05
3.0092518e-05
2.5391587e-05
2.1241624e-05
1.7607721e-05
1.4450613e-05
1.1728712e-05
9.3997952e-06
7.4223953e-06
5.7567606e-06
4.3658471e-06
3.215436e-06
2.2752368e-06
1.5194087e-06
9.2123879e-07
4.8590945e-07
1.4692018e-07
7.5361932e-08
7.0693214e-05
5.5305064e-05
4.5510583e-05
4.0541463e-05
3.9666839e-05
4.2163125e-05
4.7339441e-05
5.4479436e-05
6.2866725e-05
7.1829277e-05
8.0768398e-05
8.9173838e-05
9.6632619e-05
0.00010283355
0.00010756664
0.00011071728
0.00011225624
0.00011222705
0.00011073195
0.00010791754
0.00010396095
9.9057001e-05
9.3407011e-05
8.720957e-05
8.065314e-05
7.391058e-05
6.7135343e-05
6.045926e-05
5.3991609e-05
4.7819275e-05
4.2007768e-05
3.6602863e-05
3.1632699e-05
2.7110123e-05
2.3035166e-05
1.9397501e-05
1.6178794e-05
1.3354875e-05
1.0897673e-05
8.7768859e-06
6.9613936e-06
5.4203596e-06
4.1241954e-06
3.0451997e-06
2.1578501e-06
1.4417852e-06
8.7154269e-07
4.5989573e-07
1.3431047e-07
7.4882291e-08
0.00010433651
8.2800455e-05
6.6212998e-05
5.401312e-05
4.5789623e-05
4.1075082e-05
3.9409397e-05
4.0277366e-05
4.3125538e-05
4.7399973e-05
5.2572897e-05
5.8159353e-05
6.3730286e-05
6.8923149e-05
7.3448617e-05
7.7092698e-05
7.9714688e-05
8.1241819e-05
8.1661489e-05
8.1011851e-05
7.9371585e-05
7.6849513e-05
7.3574634e-05
6.9687052e-05
6.5330145e-05
6.064403e-05
5.5760444e-05
5.0798953e-05
4.5864439e-05
4.1045696e-05
3.6414979e-05
3.2028341e-05
2.7926566e-05
2.4136554e-05
2.0672995e-05
1.7540194e-05
1.4733954e-05
1.2243397e-05
1.0052678e-05
8.1425265e-06
6.4915984e-06
5.0776174e-06
3.8783152e-06
2.8723663e-06
2.0392975e-06
1.3637018e-06
8.2293701e-07
4.3392036e-07
1.2521563e-07
7.2412929e-08
0.00014408896
0.00011840737
9.6917607e-05
7.9220848e-05
6.5136012e-05
5.4396723e-05
4.6736309e-05
4.1823e-05
3.9267991e-05
3.8654966e-05
3.9561666e-05
4.1574339e-05
4.4300811e-05
4.738301e-05
5.0507241e-05
5.3411118e-05
5.5887103e-05
5.7783003e-05
5.8999825e-05
5.9487438e-05
5.923859e-05
5.8281878e-05
5.6674208e-05
5.4493241e-05
5.1830233e-05
4.8783579e-05
4.5453218e-05
4.1936053e-05
3.832237e-05
3.4693267e-05
3.1118997e-05
2.7658122e-05
2.4357359e-05
2.1251976e-05
1.8366611e-05
1.5716387e-05
1.3308207e-05
1.1142135e-05
9.2127636e-06
7.5105363e-06
6.0229472e-06
4.7356251e-06
3.6332263e-06
2.7004904e-06
1.9220281e-06
1.2869242e-06
7.762971e-07
4.0881462e-07
1.1863217e-07
6.8562694e-08
0.00018686438
0.00015865386
0.0001338713
0.00011223805
9.3726699e-05
7.8217373e-05
6.5591749e-05
5.566895e-05
4.8206507e-05
4.2921955e-05
3.9508578e-05
3.7645919e-05
3.701038e-05
3.7286735e-05
3.8178918e-05
3.9418874e-05
4.0773135e-05
4.2047124e-05
4.3087215e-05
4.3780652e-05
4.4053603e-05
4.3867681e-05
4.3215381e-05
4.2114825e-05
4.0604219e-05
3.8736347e-05
3.6573409e-05
3.4182374e-05
3.1631012e-05
2.8984651e-05
2.6303709e-05
2.364194e-05
2.104536e-05
1.855175e-05
1.6190655e-05
1.3983766e-05
1.1945583e-05
1.0084271e-05
8.402625e-06
6.8990611e-06
5.5685987e-06
4.4037994e-06
3.3955648e-06
2.534185e-06
1.8091288e-06
1.2135167e-06
7.3259634e-07
3.853281e-07
1.1366426e-07
6.3983799e-08
0.00023041937
0.00020093758
0.00017417284
0.00014993258
0.00012828314
0.00010920399
9.2681844e-05
7.8649939e-05
6.6984228e-05
5.7518414e-05
5.005441e-05
4.4368697e-05
4.0219508e-05
3.7355762e-05
3.5526399e-05
3.4488941e-05
3.4016905e-05
3.3905873e-05
3.397803e-05
3.4085027e-05
3.410919e-05
3.3963179e-05
3.358833e-05
3.2951957e-05
3.2043891e-05
3.0872576e-05
2.9460986e-05
2.7842621e-05
2.6057755e-05
2.4150112e-05
2.2164026e-05
2.0142164e-05
1.8123802e-05
1.6143638e-05
1.4231079e-05
1.2409953e-05
1.0698559e-05
9.1099806e-06
7.652587e-06
6.3306594e-06
5.1450763e-06
4.0940404e-06
3.1737305e-06
2.3792447e-06
1.7044247e-06
1.1459173e-06
6.9300085e-07
3.6418168e-07
1.0969314e-07
5.9175268e-08
0.00027316221
0.00024335372
0.00021563379
0.00018987042
0.00016617994
0.00014460402
0.00012519757
0.00010797351
9.289626e-05
7.9891869e-05
6.8854349e-05
5.9648537e-05
5.211396e-05
4.6070758e-05
4.1326619e-05
3.7683751e-05
3.4945577e-05
3.2922915e-05
3.1439398e-05
3.0335858e-05
2.9473517e-05
2.8735921e-05
2.8029662e-05
2.7284001e-05
2.6449534e-05
2.5496131e-05
2.4410342e-05
2.3192499e-05
2.1853727e-05
2.0413015e-05
1.8894503e-05
1.7325079e-05
1.5732355e-05
1.4143045e-05
1.2581756e-05
1.1070156e-05
9.6264943e-06
8.2654099e-06
6.9979795e-06
5.8319482e-06
4.772088e-06
3.8206612e-06
2.9778799e-06
2.2426734e-06
1.6125237e-06
1.0869943e-06
6.5894732e-07
3.4613498e-07
1.0647152e-07
5.4474718e-08
0.00031399722
0.00028454475
0.00025664462
0.00023020752
0.00020536976
0.00018220789
0.00016081638
0.000141259
0.0001235612
0.00010771689
9.3691901e-05
8.142428e-05
7.0825567e-05
6.1783951e-05
5.4168685e-05
4.7834948e-05
4.2628989e-05
3.8393346e-05
3.4971948e-05
3.2214773e-05
2.9981873e-05
2.8146575e-05
2.6597785e-05
2.5241361e-05
2.400059e-05
2.2815852e-05
2.1643602e-05
2.0454812e-05
1.9233048e-05
1.7972338e-05
1.667497e-05
1.5349356e-05
1.4008058e-05
1.2666045e-05
1.1339225e-05
1.0043286e-05
8.7928096e-06
7.6006855e-06
6.4777532e-06
5.4326635e-06
4.4719072e-06
3.5999942e-06
2.8196877e-06
2.1325536e-06
1.5387589e-06
1.0400462e-06
6.3217342e-07
3.3203871e-07
1.0410976e-07
5.0113727e-08
0.00035220113
0.00032357466
0.00029605502
0.00026958344
0.00024429712
0.00022028863
0.00019767123
0.00017653727
0.00015695058
0.00013895103
0.00012255618
0.00010776004
9.4532518e-05
8.2820489e-05
7.255003e-05
6.3629233e-05
5.5951554e-05
4.9399575e-05
4.3849057e-05
3.9173029e-05
3.5245704e-05
3.1946027e-05
2.916072e-05
2.6786692e-05
2.4732767e-05
2.2920711e-05
2.1285587e-05
1.9775502e-05
1.8350853e-05
1.6983179e-05
1.5653743e-05
1.4351958e-05
1.3073775e-05
1.1820112e-05
1.0595406e-05
9.4063325e-06
8.2607295e-06
7.1667387e-06
6.1321568e-06
5.1639917e-06
4.2681971e-06
3.4495807e-06
2.7118048e-06
2.0576999e-06
1.4889821e-06
1.0087012e-06
6.1466885e-07
3.2284145e-07
1.0296898e-07
4.6254449e-08
0.00038732629
0.0003598266
0.00033307119
0.00030702406
0.00028181199
0.00025753142
0.00023430033
0.00021222363
0.00019138622
0.00017185611
0.00015368502
0.00013690641
0.00012153391
0.00010756093
9.4961344e-05
8.3690584e-05
7.3687373e-05
6.4875967e-05
5.7168893e-05
5.0469993e-05
4.4677649e-05
3.9687983e-05
3.5397925e-05
3.1707968e-05
2.8524539e-05
2.5761862e-05
2.3343315e-05
2.120223e-05
1.92822e-05
1.7536915e-05
1.5929627e-05
1.4432315e-05
1.3024644e-05
1.169281e-05
1.0428344e-05
9.2269557e-06
8.0874578e-06
7.010813e-06
5.9993333e-06
5.0560359e-06
4.18416e-06
3.3868483e-06
2.6669365e-06
2.0270407e-06
1.4691671e-06
9.966879e-07
6.0853523e-07
3.1954067e-07
1.0352168e-07
4.3000626e-08
0.00041912434
0.00039291983
0.00036716963
0.00034185562
0.00031708837
0.0002929609
0.00026958715
0.00024707386
0.00022551464
0.00020499217
0.00018557828
0.00016733178
0.00015029643
0.00013449979
0.00011995283
0.00010664985
9.4568952e-05
8.367296e-05
7.3910903e-05
6.5219897e-05
5.7527398e-05
5.0753659e-05
4.4814323e-05
3.9622982e-05
3.5093625e-05
3.1142836e-05
2.7691678e-05
2.4667191e-05
2.2003484e-05
1.964241e-05
1.7533842e-05
1.5635606e-05
1.3913109e-05
1.2338749e-05
1.0891147e-05
9.5543089e-06
8.31673e-06
7.1705408e-06
6.1107e-06
5.1342852e-06
4.239894e-06
3.4271763e-06
2.6964645e-06
2.0486691e-06
1.4847825e-06
1.0074487e-06
6.1574713e-07
3.2307491e-07
1.0622618e-07
4.0403948e-08
0.00044748715
0.00042264389
0.00039802655
0.00037363196
0.00034955215
0.00032587296
0.00030269932
0.00028013322
0.00025826882
0.00023719403
0.00021699033
0.00019773078
0.00017947792
0.00016228233
0.0001461816
0.00013119961
0.00011734604
0.00010461644
9.299255e-05
8.2443255e-05
7.2925764e-05
6.4387222e-05
5.6766558e-05
4.999651e-05
4.4005744e-05
3.8720952e-05
3.4068838e-05
2.9977918e-05
2.6380066e-05
2.3211752e-05
2.0414963e-05
1.7937791e-05
1.5734713e-05
1.3766598e-05
1.2000471e-05
1.04091e-05
8.9704514e-06
7.6670705e-06
6.4854266e-06
5.4152749e-06
4.44906e-06
3.5813995e-06
2.8086279e-06
2.128563e-06
1.5399272e-06
1.0435904e-06
6.3781769e-07
3.3416187e-07
1.1143036e-07
3.8474968e-08
0.0004723959
0.00044890143
0.00042545556
0.00040206832
0.00037881312
0.00035576707
0.00033302389
0.0003106773
0.00028881707
0.00026753018
0.00024690062
0.00022700761
0.00020792375
0.00018971352
0.00017243204
0.00015612396
0.00014082255
0.00012654903
0.00011331227
0.00010110882
8.9923341e-05
7.9729297e-05
7.0490064e-05
6.2160257e-05
5.4687289e-05
4.8013076e-05
4.2075807e-05
3.6811695e-05
3.2156647e-05
2.8047775e-05
2.4424707e-05
2.1230651e-05
1.8413202e-05
1.5924886e-05
1.3723456e-05
1.177196e-05
1.003862e-05
8.4965613e-06
7.1234335e-06
5.9009627e-06
4.8144781e-06
3.8524501e-06
3.0060404e-06
2.2688114e-06
1.6361184e-06
1.1061024e-06
6.7533045e-07
3.5306413e-07
1.1928186e-07
3.7192549e-08
0.00049388773
0.00047166961
0.00044936426
0.00042699415
0.00040461511
0.00038229535
0.00036011706
0.00033816422
0.00031651972
0.00029526612
0.00027448537
0.00025425749
0.0002346589
0.00021576117
0.00019762968
0.00018032247
0.00016388905
0.00014836945
0.00013379342
0.00012017995
0.00010753699
9.5861541e-05
8.513999e-05
7.5348796e-05
6.6455411e-05
5.841945e-05
5.1194036e-05
4.4727273e-05
3.8963771e-05
3.3846162e-05
2.9316548e-05
2.5317826e-05
2.1794839e-05
1.8695334e-05
1.5970709e-05
1.3576533e-05
1.1472867e-05
9.6243936e-06
8.0003847e-06
6.5745398e-06
5.3247308e-06
4.2326932e-06
3.283668e-06
2.4661439e-06
1.7712701e-06
1.1936954e-06
7.2755003e-07
3.7940167e-07
1.2967972e-07
3.651141e-08
0.00051200479
0.0004909434
0.00046969235
0.00044828615
0.00042676472
0.00040518819
0.0003836279
0.00036215819
0.00034085422
0.00031979247
0.00029905049
0.00027870583
0.00025883481