/*--------------------------------*- C++ -*----------------------------------*\
  =========                 |
  \\      /  F ield         | OpenFOAM: The Open Source CFD Toolbox
   \\    /   O peration     | Website:  https://openfoam.org
    \\  /    A nd           | Version:  6
     \\/     M anipulation  |
\*---------------------------------------------------------------------------*/
FoamFile
{
    version     2.0;
    format      ascii;
    class       volScalarField;
    location    "252";
    object      pMean;
}
// * * * * * * * * * * * * * * * * * * * * * * * * * * * * * * * * * * * * * //

dimensions      [0 2 -2 0 0 0 0];

internalField   nonuniform List<scalar> 
9200
(
-0.39063919
-0.37881545
-0.36826803
-0.35893868
-0.34981567
-0.34090496
-0.33228844
-0.32393146
-0.31576387
-0.3077122
-0.29970309
-0.29166818
-0.28355117
-0.27531493
-0.26695179
-0.25850084
-0.25004223
-0.2416667
-0.23438516
-0.2324237
-0.40889492
-0.39462145
-0.38213536
-0.37128012
-0.36077103
-0.35058288
-0.34078797
-0.33132144
-0.32208206
-0.31297147
-0.30389796
-0.29478212
-0.28556436
-0.27621055
-0.26671719
-0.25711488
-0.24743914
-0.23769475
-0.22855827
-0.22217605
-0.42750783
-0.41077135
-0.39639867
-0.38409021
-0.37224941
-0.36080199
-0.34979951
-0.33914014
-0.32869077
-0.3183332
-0.3079675
-0.29751735
-0.28693642
-0.276211
-0.26535924
-0.2544263
-0.24345666
-0.23246362
-0.22184556
-0.2127164
-0.44602779
-0.42685553
-0.41066555
-0.39696544
-0.38381023
-0.3710608
-0.35874119
-0.34671347
-0.33482189
-0.32294495
-0.31099609
-0.29892603
-0.28672527
-0.27442112
-0.26207038
-0.24974883
-0.23752727
-0.22544685
-0.21377571
-0.203259
-0.46380817
-0.44231103
-0.42442344
-0.40940781
-0.39494443
-0.38081964
-0.36703125
-0.35341739
-0.33982147
-0.32614656
-0.31234935
-0.29843539
-0.28445407
-0.27048801
-0.2566392
-0.2430147
-0.22970646
-0.2167727
-0.20440214
-0.19310748
-0.48000881
-0.45640287
-0.43699535
-0.42075208
-0.40497071
-0.38936458
-0.37391934
-0.35847625
-0.34291289
-0.32719341
-0.31134999
-0.29546658
-0.27966369
-0.26407992
-0.24885373
-0.23410871
-0.21993874
-0.20639714
-0.19360944
-0.1819168
-0.493611
-0.46823047
-0.44754168
-0.43016937
-0.41304761
-0.39583423
-0.37853215
-0.36102755
-0.34327688
-0.32534409
-0.30736387
-0.28951078
-0.2719741
-0.25493446
-0.23854578
-0.22292478
-0.20814411
-0.19423065
-0.18124974
-0.16940507
-0.50344035
-0.47675225
-0.45509391
-0.43671545
-0.41823932
-0.39930345
-0.37997195
-0.3602286
-0.34015664
-0.31995358
-0.29987223
-0.28017586
-0.26110671
-0.24286348
-0.22558951
-0.20937107
-0.1942406
-0.18018486
-0.16721029
-0.1554044
-0.50814695
-0.48068287
-0.45835463
-0.43904379
-0.41916193
-0.39839055
-0.37691543
-0.35487455
-0.33251596
-0.31018431
-0.28824225
-0.26701778
-0.24677474
-0.22769866
-0.20989643
-0.19340595
-0.17820945
-0.16424992
-0.15147905
-0.13988467
-0.50637803
-0.47859923
-0.45576857
-0.43548283
-0.41409148
-0.39140373
-0.36779158
-0.343591
-0.31922614
-0.29516965
-0.27185516
-0.24962937
-0.22873509
-0.20931238
-0.19141224
-0.17501642
-0.16005807
-0.14644258
-0.13407421
-0.12285375
-0.27365494
-0.27811787
-0.28029699
-0.2807571
-0.28023468
-0.27890438
-0.27685698
-0.27418521
-0.27096326
-0.26724785
-0.26308517
-0.25851478
-0.25357176
-0.24828812
-0.24269409
-0.23682053
-0.23070043
-0.22435637
-0.21778902
-0.21108774
-0.27652287
-0.28055454
-0.28241884
-0.28265714
-0.28195031
-0.28046432
-0.27828788
-0.2755096
-0.27219984
-0.26841225
-0.26419047
-0.25957179
-0.25458929
-0.24927286
-0.24365
-0.23775042
-0.23161452
-0.2252632
-0.21858888
-0.21156506
-0.2821104
-0.2853011
-0.28655312
-0.2863577
-0.28528958
-0.28349911
-0.28107108
-0.27808607
-0.27460694
-0.27068135
-0.26634777
-0.26163899
-0.25658404
-0.25120876
-0.24553558
-0.23959113
-0.23342698
-0.22706305
-0.2201981
-0.21256666
-0.29015614
-0.29214654
-0.29251425
-0.29168141
-0.29007637
-0.28782968
-0.28502148
-0.28172151
-0.27798226
-0.273843
-0.26933485
-0.26448407
-0.25931382
-0.25384394
-0.24808984
-0.24207261
-0.23585531
-0.22946281
-0.2223482
-0.2138692
-0.30033113
-0.3008261
-0.30007126
-0.29841019
-0.29609714
-0.29324182
-0.28992036
-0.28619014
-0.28209147
-0.27765369
-0.27289905
-0.26784505
-0.2625069
-0.25689717
-0.25102293
-0.24489669
-0.23858885
-0.23213778
-0.22474167
-0.21524054
-0.3122944
-0.31106522
-0.30898679
-0.30632392
-0.30314104
-0.29952864
-0.2955611
-0.29128372
-0.28672397
-0.28189883
-0.27681912
-0.27149256
-0.26592508
-0.26012054
-0.25407669
-0.24779466
-0.24134438
-0.23478366
-0.22708662
-0.21646158
-0.32574306
-0.32261881
-0.31905229
-0.31523621
-0.31103802
-0.30653256
-0.30179638
-0.29686235
-0.29174248
-0.28644063
-0.28095555
-0.27528315
-0.2694184
-0.26335537
-0.25708269
-0.25058991
-0.24393967
-0.23721233
-0.22922215
-0.21748507
-0.3404419
-0.33529528
-0.33011132
-0.32501997
-0.31968926
-0.31418153
-0.30857588
-0.30289216
-0.29712702
-0.29126929
-0.28530288
-0.27920903
-0.27296884
-0.26656422
-0.25997429
-0.25318009
-0.24624199
-0.23928634
-0.23108593
-0.21846612
-0.35622257
-0.34894785
-0.34203971
-0.33557537
-0.32901745
-0.32241476
-0.31585098
-0.3093326
-0.30283819
-0.29633863
-0.2897996
-0.28318384
-0.27645346
-0.26957039
-0.26249183
-0.2551723
-0.24763777
-0.23999762
-0.2310236
-0.2172524
-0.37297422
-0.36345543
-0.3547107
-0.34676935
-0.33887646
-0.33106717
-0.32342976
-0.31595533
-0.30860225
-0.30132215
-0.29406268
-0.28677026
-0.27939308
-0.27188129
-0.26418175
-0.25623374
-0.24798427
-0.23923368
-0.22836308
-0.21238241
-0.20349979
-0.19405408
-0.18463166
-0.17530634
-0.16602121
-0.15681701
-0.14774939
-0.13885438
-0.13016084
-0.12169672
-0.11348709
-0.10555307
-0.097912325
-0.090579524
-0.083566371
-0.076881695
-0.070531597
-0.064519598
-0.058846773
-0.053511901
-0.048511615
-0.043840577
-0.039491654
-0.03545611
-0.031723799
-0.028283376
-0.025122494
-0.022228014
-0.019586204
-0.017182932
-0.015003848
-0.013034561
-0.011260793
-0.0096685293
-0.0082441518
-0.0069745604
-0.0058472932
-0.0048506175
-0.0039737071
-0.0032065452
-0.0025408021
-0.0019676747
-0.0014856735
-0.0010777228
-0.00078353687
-0.00048501942
-0.00055204805
4.2739252e-05
-0.0017909865
0.0026920501
-0.20470529
-0.1948374
-0.18529271
-0.17597474
-0.16666205
-0.15741705
-0.14831529
-0.13938898
-0.13066413
-0.12216934
-0.11393008
-0.10596732
-0.098298708
-0.090938979
-0.083899897
-0.077190338
-0.070816447
-0.064781787
-0.059087466
-0.053732279
-0.048712871
-0.044023901
-0.039658226
-0.035607087
-0.031860314
-0.028406524
-0.02523333
-0.022327548
-0.019675396
-0.017262691
-0.015075029
-0.013097963
-0.011317161
-0.0097185538
-0.0082884681
-0.0070137513
-0.0058818897
-0.004881101
-0.0040005107
-0.0032300554
-0.0025613594
-0.0019855762
-0.001501155
-0.0010910162
-0.0007946026
-0.00049441504
-0.00055767134
3.5219089e-05
-0.0017781563
0.0026629666
-0.20718076
-0.19641869
-0.18663353
-0.17737301
-0.16802043
-0.1586958
-0.14952885
-0.14054208
-0.13175415
-0.12319598
-0.11489453
-0.10687067
-0.099142139
-0.091724024
-0.084628373
-0.077864268
-0.071438038
-0.065353403
-0.059611589
-0.054211475
-0.049149756
-0.04442111
-0.040018384
-0.035932789
-0.032154096
-0.02867085
-0.025470574
-0.022539983
-0.019865184
-0.017431874
-0.015225527
-0.013231569
-0.01143554
-0.0098232453
-0.0083808865
-0.0070951894
-0.0059535225
-0.0049439897
-0.0040556075
-0.0032782071
-0.0026033106
-0.0020219734
-0.0015325189
-0.0011178382
-0.00081686184
-0.0005131893
-0.00056893545
2.0428078e-05
-0.0017528411
0.0026053856
-0.21069749
-0.19850982
-0.18837736
-0.17930454
-0.16994483
-0.16052113
-0.15127869
-0.14222275
-0.13335572
-0.12471385
-0.11632818
-0.10821976
-0.10040665
-0.092904823
-0.085727081
-0.078883036
-0.072379472
-0.066220493
-0.060407632
-0.054939996
-0.049814438
-0.045025737
-0.040566782
-0.03642878
-0.032601455
-0.029073269
-0.025831634
-0.022863129
-0.020153703
-0.017688884
-0.015453963
-0.01343418
-0.011614884
-0.0099816858
-0.0085205981
-0.0072181597
-0.0060615579
-0.0050387215
-0.0041384985
-0.0033505577
-0.0026662631
-0.0020765187
-0.0015794573
-0.0011579179
-0.0008500749
-0.00054113222
-0.00058569024
-1.4140216e-06
-0.0017155354
0.0025205174
-0.2149531
-0.20078322
-0.19020486
-0.18152296
-0.1722446
-0.16272636
-0.15341979
-0.14431073
-0.13536943
-0.12663938
-0.11816065
-0.10995569
-0.10204309
-0.094440394
-0.087161882
-0.080218265
-0.0736172
-0.067363542
-0.061459436
-0.055904467
-0.050695847
-0.045828608
-0.041295804
-0.03708872
-0.033197094
-0.029609337
-0.026312761
-0.023293802
-0.020538235
-0.018031383
-0.015758318
-0.013704041
-0.011853655
-0.010192524
-0.0087064112
-0.0073816086
-0.0062050631
-0.0051644696
-0.0042484512
-0.0034464581
-0.0027496429
-0.0021487051
-0.0016415228
-0.0012108621
-0.00089389974
-0.00057793903
-0.00060774252
-2.9957409e-05
-0.0016670638
0.0024102466
-0.21953648
-0.20291338
-0.19180825
-0.18375442
-0.17470868
-0.16513398
-0.15578945
-0.14666407
-0.13767722
-0.12887386
-0.12030821
-0.11200767
-0.10399206
-0.096281003
-0.08889116
-0.081835163
-0.075122175
-0.06875831
-0.062746768
-0.057087986
-0.051779842
-0.04681787
-0.042195484
-0.037904203
-0.033933891
-0.030272992
-0.026908771
-0.023827549
-0.021014932
-0.018456035
-0.01613568
-0.014038602
-0.012149618
-0.010453794
-0.0089365922
-0.0075840065
-0.006382688
-0.005320043
-0.0043844156
-0.0035649844
-0.0028526381
-0.0022378214
-0.001718094
-0.0012761308
-0.00094787295
-0.00062320475
-0.00063484234
-6.4761874e-05
-0.0016084927
0.0022770236
-0.22401056
-0.20469287
-0.19295563
-0.18569736
-0.17711021
-0.16759232
-0.15825036
-0.14914994
-0.14016392
-0.13132154
-0.12268956
-0.11430568
-0.10619355
-0.098375365
-0.090870989
-0.083696
-0.076861923
-0.070376795
-0.06424543
-0.058469598
-0.053048236
-0.047977705
-0.043252039
-0.038863198
-0.03480133
-0.031055029
-0.027611595
-0.024457291
-0.021577584
-0.018957385
-0.016581265
-0.014433668
-0.012499093
-0.010762273
-0.0092083251
-0.0078228964
-0.0065922934
-0.005503584
-0.0045447833
-0.0037047486
-0.0029740554
-0.0023428465
-0.0018083014
-0.0013529912
-0.0010113852
-0.00067642386
-0.00066668543
-0.00010535382
-0.001541049
0.0021237186
-0.22809157
-0.20649962
-0.19386576
-0.18716348
-0.1792293
-0.17000387
-0.16074791
-0.15170125
-0.14275644
-0.13391553
-0.12524441
-0.11679382
-0.10859561
-0.10067589
-0.093058146
-0.0857617
-0.078801279
-0.072187507
-0.065927346
-0.060024357
-0.054478936
-0.0492886
-0.044448273
-0.039950578
-0.035786124
-0.031943793
-0.028411025
-0.025174094
-0.022218378
-0.01952861
-0.017089119
-0.014884049
-0.012897568
-0.011114043
-0.009518217
-0.0080953486
-0.0068313587
-0.005712933
-0.0047277129
-0.0038641896
-0.0031125802
-0.0024626823
-0.0019112352
-0.0014407009
-0.0010838416
-0.00073712674
-0.00070302361
-0.00015132714
-0.0014660992
0.0019535746
-0.22944133
-0.20853348
-0.19519469
-0.18807854
-0.18063128
-0.17198716
-0.16300663
-0.15408461
-0.14523909
-0.13646517
-0.12781209
-0.11933868
-0.11108834
-0.10309345
-0.095381793
-0.087977124
-0.080898286
-0.074159381
-0.06777031
-0.061737135
-0.056062352
-0.050745201
-0.045781987
-0.041166416
-0.036889907
-0.032941918
-0.029310259
-0.025981401
-0.022940765
-0.020173007
-0.017662276
-0.015392461
-0.013347406
-0.011511118
-0.0098679415
-0.0084027244
-0.0071009653
-0.0059489264
-0.0049338313
-0.0040437576
-0.0032685155
-0.0025975096
-0.0020269769
-0.0015392542
-0.0011651843
-0.00080515243
-0.00074387361
-0.00020209652
-0.0013854435
0.0017708235
-0.21977508
-0.20788641
-0.19644174
-0.18792464
-0.18042503
-0.17257034
-0.16420567
-0.15565568
-0.1470991
-0.13856398
-0.13008075
-0.12170865
-0.11350409
-0.10551032
-0.097763019
-0.090293087
-0.083126077
-0.076281957
-0.069775617
-0.06361736
-0.057813253
-0.052365496
-0.047272806
-0.042530811
-0.038132424
-0.034068229
-0.030326835
-0.02689524
-0.023759159
-0.020903351
-0.01831191
-0.015968543
-0.013856817
-0.011960385
-0.01026319
-0.0087496379
-0.0074047678
-0.0062143721
-0.0051652045
-0.0042448739
-0.003442728
-0.0027477198
-0.0021555243
-0.0016483041
-0.0012548551
-0.00087959913
-0.00078870828
-0.00025564016
-0.0013014973
0.0015811236
-0.1979705
-0.2018528
-0.19604392
-0.18676763
-0.17886402
-0.17143269
-0.16352566
-0.15528638
-0.14697833
-0.13866622
-0.1303729
-0.12215343
-0.11406821
-0.10616519
-0.098483494
-0.091057249
-0.083915229
-0.07708043
-0.070570465
-0.064398078
-0.058571513
-0.053094883
-0.047968571
-0.043189634
-0.038752204
-0.034647881
-0.030866119
-0.027394595
-0.024219566
-0.021326203
-0.018698906
-0.016321592
-0.014177961
-0.012251729
-0.010526847
-0.0089876822
-0.0076192001
-0.0064070877
-0.0053379671
-0.0043993003
-0.0035802373
-0.0028695978
-0.0022625662
-0.0017417318
-0.0013330362
-0.00094731713
-0.00082749699
-0.00030878159
-0.0012141489
0.0013927988
-0.18710063
-0.19208992
-0.18811938
-0.17909519
-0.171555
-0.16491868
-0.15785128
-0.15036225
-0.14274265
-0.13506901
-0.12735518
-0.11965233
-0.11202355
-0.10452078
-0.097187132
-0.090060903
-0.083175293
-0.076557665
-0.070229821
-0.064208464
-0.058505551
-0.053128633
-0.04808125
-0.043363342
-0.038971648
-0.034900114
-0.031140289
-0.027681706
-0.02451226
-0.021618549
-0.018986212
-0.016600227
-0.014445195
-0.012505591
-0.010765992
-0.00921128
-0.0078268284
-0.0065986445
-0.0055135817
-0.0045592801
-0.0037249313
-0.0029995185
-0.0023777219
-0.0018431967
-0.0014178835
-0.0010221665
-0.00086835769
-0.00037100102
-0.0011136342
0.001188721
-0.17796841
-0.18047092
-0.1777386
-0.17047406
-0.16383229
-0.15793018
-0.15166453
-0.14493819
-0.13801195
-0.1309816
-0.12386341
-0.11670269
-0.10956146
-0.1024937
-0.095544879
-0.088755981
-0.082163414
-0.075798068
-0.069685343
-0.063845521
-0.058294055
-0.053041855
-0.048095639
-0.043458313
-0.039129369
-0.035105272
-0.03137986
-0.027944731
-0.024789617
-0.02190275
-0.019271196
-0.016881175
-0.014718357
-0.012768123
-0.011015816
-0.0094469478
-0.0080474045
-0.0068036027
-0.005702701
-0.004732581
-0.0038825165
-0.0031417073
-0.0025042938
-0.0019551505
-0.0015117741
-0.001105199
-0.0009138479
-0.00044008433
-0.0010033543
0.00096425966
-0.16789518
-0.16793259
-0.16569823
-0.16052549
-0.15514823
-0.15002821
-0.14458736
-0.13870259
-0.13254685
-0.12622098
-0.11975664
-0.11319735
-0.1066019
-0.10002508
-0.093514394
-0.087113079
-0.080860307
-0.074790209
-0.06893166
-0.063308505
-0.057939765
-0.052839853
-0.048018865
-0.043482915
-0.039234503
-0.035272888
-0.031594473
-0.028193186
-0.025060864
-0.022187609
-0.019562147
-0.017172149
-0.015004541
-0.013045784
-0.011282131
-0.009699859
-0.0082854781
-0.0070259097
-0.0059086974
-0.0049220279
-0.0040553066
-0.0032979847
-0.0026436787
-0.0020784946
-0.0016154239
-0.0011962367
-0.00096495594
-0.00051299706
-0.00089100404
0.00072970534
-0.1569477
-0.15524748
-0.15309914
-0.14965221
-0.14559391
-0.14131518
-0.13670345
-0.13169002
-0.12635618
-0.12078501
-0.11502323
-0.10911686
-0.10312058
-0.097088123
-0.091068063
-0.085105126
-0.079240469
-0.073510868
-0.067948289
-0.062579905
-0.057428207
-0.052511123
-0.047842229
-0.043431017
-0.039283216
-0.035401128
-0.031783988
-0.028428336
-0.025328381
-0.02247637
-0.019862936
-0.01747744
-0.015308282
-0.013343196
-0.011569524
-0.0099744601
-0.0085452738
-0.0072695054
-0.0061351793
-0.0051308644
-0.0042461614
-0.0034708077
-0.0027979466
-0.0022148605
-0.0017301888
-0.0012959841
-0.0010229144
-0.00058875456
-0.0007824967
0.00049321127
-0.14483408
-0.14245609
-0.14048387
-0.13832446
-0.13545774
-0.13204678
-0.12825179
-0.1240881
-0.11957798
-0.11477744
-0.10974024
-0.10451415
-0.099149539
-0.093697705
-0.088207085
-0.082722788
-0.077286829
-0.07193762
-0.066709428
-0.061632167
-0.05673136
-0.052028163
-0.047539471
-0.043278106
-0.03925306
-0.035469783
-0.031930497
-0.028634539
-0.025578703
-0.0227576
-0.020163998
-0.017789166
-0.015623187
-0.013655269
-0.011874025
-0.01026773
-0.0088245609
-0.0075328054
-0.0063810799
-0.0053584257
-0.0044547193
-0.003660026
-0.0029670981
-0.0023642998
-0.0018562403
-0.0014044085
-0.0010884269
-0.00066655689
-0.00068367788
0.00026335663
-0.13187634
-0.1297048
-0.12813102
-0.12690086
-0.125017
-0.12244301
-0.11943513
-0.11607331
-0.11235599
-0.10831342
-0.1039978
-0.09945807
-0.094739368
-0.089888225
-0.08495166
-0.079974281
-0.074997904
-0.070061417
-0.065200367
-0.060446579
-0.055827941
-0.051368311
-0.047087518
-0.043001452
-0.03912222
-0.03545836
-0.032015099
-0.028794644
-0.025796496
-0.023017779
-0.020453567
-0.018097214
-0.015940678
-0.013974819
-0.012189695
-0.010574827
-0.0091194501
-0.0078127336
-0.0066440064
-0.0056028831
-0.0046796087
-0.0038646254
-0.0031504032
-0.0025262674
-0.001993265
-0.001521151
-0.0011619532
-0.00074565838
-0.0006003986
4.931737e-05
-0.11877972
-0.11723688
-0.11619027
-0.11563589
-0.11452694
-0.112712
-0.11043886
-0.10781579
-0.10483806
-0.10151861
-0.097901486
-0.094033252
-0.089955617
-0.085709601
-0.081337774
-0.076883039
-0.072386264
-0.067885812
-0.063417415
-0.059013825
-0.054704461
-0.050515184
-0.04646819
-0.042581993
-0.038871489
-0.035348086
-0.032019884
-0.028891913
-0.025966391
-0.023243017
-0.020719268
-0.018390716
-0.016251328
-0.014293773
-0.012509708
-0.010890051
-0.0094252393
-0.0081054612
-0.0069208809
-0.0058617928
-0.0049189127
-0.0040831165
-0.003346722
-0.0026998854
-0.0021406648
-0.0016457098
-0.0012437543
-0.00082560273
-0.00053776388
-0.00014020045
-0.10607296
-0.10522816
-0.10472657
-0.10468648
-0.10418467
-0.10302816
-0.101418
-0.099462086
-0.097158819
-0.09451177
-0.091555005
-0.088329464
-0.084872264
-0.081219905
-0.077410331
-0.073482348
-0.069474555
-0.065424018
-0.061365751
-0.057332456
-0.053354176
-0.049457978
-0.045667735
-0.042004008
-0.038484017
-0.035121675
-0.031927697
-0.028909755
-0.026072685
-0.023418723
-0.020947768
-0.018657661
-0.016544469
-0.014602776
-0.01282596
-0.011206465
-0.0097360611
-0.0084060804
-0.0072076439
-0.0061318335
-0.0051699423
-0.0043133453
-0.0035543502
-0.0028838255
-0.0022974679
-0.0017773932
-0.0013338003
-0.00090627142
-0.00049939002
-0.00029813223
-0.094031569
-0.093795526
-0.093784876
-0.094150977
-0.09412837
-0.093525559
-0.092495084
-0.091130086
-0.089430902
-0.087396284
-0.085051035
-0.082428829
-0.079561371
-0.076479998
-0.073218071
-0.069810224
-0.066291287
-0.062695816
-0.059057307
-0.055407589
-0.051776463
-0.04819138
-0.044677149
-0.041255729
-0.037946102
-0.034764224
-0.03172305
-0.028832615
-0.026100167
-0.023530348
-0.021125407
-0.018885436
-0.016808626
-0.014891529
-0.013129325
-0.011516079
-0.010045
-0.0087086721
-0.0074992834
-0.0064088064
-0.0054292174
-0.0045524614
-0.0037709835
-0.0030762718
-0.0024622949
-0.0019152835
-0.0014317076
-0.00098780494
-0.00048685455
-0.00042008542
-0.082789709
-0.083027815
-0.083417656
-0.08410239
-0.084456613
-0.08430763
-0.08376938
-0.082916511
-0.081748624
-0.080261387
-0.078471757
-0.076405826
-0.074089357
-0.071548306
-0.068810868
-0.065907224
-0.062868315
-0.059725219
-0.05650889
-0.053249506
-0.049975874
-0.046715051
-0.043492042
-0.040329521
-0.037247624
-0.034263825
-0.031392871
-0.02864679
-0.026034957
-0.023564207
-0.021238987
-0.019061551
-0.017032171
-0.015149367
-0.013410151
-0.011810268
-0.010344439
-0.0090065854
-0.0077900558
-0.006687806
-0.0056925947
-0.0047970116
-0.0039937844
-0.0032749628
-0.0026333866
-0.0020582287
-0.0015367101
-0.0010704579
-0.00049941253
-0.00050507949
-0.072403979
-0.07298545
-0.073676699
-0.074600091
-0.07524343
-0.075456299
-0.075323995
-0.074904096
-0.074193856
-0.073186336
-0.071891958
-0.070329678
-0.068519207
-0.066481048
-0.064238112
-0.061815661
-0.059240397
-0.056539706
-0.053741297
-0.050872862
-0.047961493
-0.045033158
-0.042112353
-0.03922179
-0.036382136
-0.033611815
-0.030926868
-0.028340895
-0.025865042
-0.023508052
-0.021276356
-0.019174213
-0.017203873
-0.015365768
-0.013658726
-0.012080186
-0.01062642
-0.0092927466
-0.0080737452
-0.0069634327
-0.0059554392
-0.005043074
-0.0042194845
-0.0034772627
-0.0028086532
-0.0022048386
-0.0016476519
-0.0011544191
-0.00053406722
-0.00055578367
-0.062883651
-0.063699236
-0.064601005
-0.065690025
-0.066545162
-0.067036843
-0.067229008
-0.067165092
-0.066839692
-0.066243557
-0.06538168
-0.064266684
-0.062912528
-0.061334401
-0.059550012
-0.057579626
-0.05544536
-0.053170584
-0.050779482
-0.048296691
-0.0457469
-0.043154339
-0.040542349
-0.037933035
-0.035346972
-0.032802953
-0.030317788
-0.027906178
-0.025580637
-0.023351478
-0.021226839
-0.01921277
-0.017313338
-0.015530783
-0.013865682
-0.012317142
-0.010882988
-0.0095599658
-0.0083439312
-0.0072300229
-0.0062128178
-0.0052864159
-0.0044445101
-0.0036802507
-0.0029857379
-0.0023534895
-0.0017630083
-0.0012396415
-0.00058602715
-0.0005781026
-0.054211801
-0.055175599
-0.056211629
-0.057402699
-0.058402327
-0.059099461
-0.059541795
-0.059761525
-0.059751046
-0.059499268
-0.05900679
-0.058280849
-0.057330257
-0.056165268
-0.054798667
-0.05324586
-0.051524353
-0.049653266
-0.047652985
-0.045544794
-0.043350491
-0.04109199
-0.03879089
-0.036468097
-0.034143499
-0.031835681
-0.02956168
-0.027336804
-0.02517449
-0.023086235
-0.021081562
-0.019168039
-0.017351346
-0.015635368
-0.014022323
-0.012512912
-0.011106486
-0.0098012098
-0.0085942384
-0.0074818719
-0.0064596934
-0.0055226588
-0.0046651184
-0.003880824
-0.0031620934
-0.0025023449
-0.0018809403
-0.0013257299
-0.00064948679
-0.00058011533
-0.046355799
-0.047401996
-0.048511586
-0.049752382
-0.050839887
-0.051679455
-0.052306362
-0.052744068
-0.052983486
-0.053012333
-0.052827824
-0.052432827
-0.051831783
-0.051030604
-0.050037612
-0.048863693
-0.04752192
-0.046027193
-0.044395961
-0.042645935
-0.040795743
-0.03886456
-0.03687175
-0.034836495
-0.032777452
-0.030712449
-0.028658216
-0.026630159
-0.024642173
-0.022706517
-0.020833728
-0.019032584
-0.017310113
-0.015671641
-0.014120869
-0.012659983
-0.011289783
-0.01000982
-0.0088185392
-0.0077134206
-0.0066910941
-0.0057474278
-0.0048775242
-0.0040757986
-0.0033350607
-0.002649394
-0.001999386
-0.0014119144
-0.00071856841
-0.00057057111
-0.039272661
-0.040352127
-0.041488919
-0.042738582
-0.043868253
-0.044797841
-0.045553232
-0.046151234
-0.046582014
-0.046832769
-0.046898315
-0.04677816
-0.046473237
-0.045985835
-0.045320432
-0.044483887
-0.043485204
-0.042335278
-0.041046703
-0.039633558
-0.038111135
-0.036495624
-0.034803799
-0.033052687
-0.031259249
-0.029440062
-0.027611046
-0.025787206
-0.023982423
-0.022209277
-0.020478919
-0.018800981
-0.017183541
-0.015633109
-0.01415467
-0.012751739
-0.011426454
-0.010179677
-0.0090111083
-0.0079193984
-0.0069022452
-0.00595647
-0.0050780052
-0.0042619979
-0.0035019452
-0.0027925062
-0.0021161772
-0.0014971083
-0.00078819578
-0.0005573145
-0.032913555
-0.033990838
-0.035120805
-0.036348942
-0.037485365
-0.03846284
-0.03930026
-0.040009481
-0.040580557
-0.041000777
-0.041263442
-0.041365657
-0.041305709
-0.041083044
-0.04069899
-0.040156995
-0.039462493
-0.038622749
-0.037646751
-0.036545068
-0.035329656
-0.034013613
-0.032610916
-0.031136143
-0.029604187
-0.028029965
-0.026428139
-0.024812858
-0.023197526
-0.021594604
-0.02001544
-0.018470145
-0.016967503
-0.015514924
-0.014118427
-0.01278266
-0.011510946
-0.010305349
-0.0091667517
-0.0080949382
-0.00708867
-0.0061457451
-0.0052629812
-0.0044363221
-0.0036600813
-0.0029294959
-0.0022291615
-0.0015800229
-0.00085467371
-0.00054606825
-0.027227197
-0.028277822
-0.029377117
-0.030562308
-0.031679232
-0.032671928
-0.03355414
-0.034334116
-0.035002282
-0.03554651
-0.035959342
-0.036236315
-0.036373879
-0.036369392
-0.036221758
-0.035931677
-0.035501601
-0.034935657
-0.03423961
-0.033420791
-0.032487973
-0.031451205
-0.03032161
-0.029111159
-0.027832435
-0.026498381
-0.025122041
-0.023716308
-0.022293698
-0.020866128
-0.019444737
-0.018039724
-0.016660223
-0.015314219
-0.014008488
-0.012748576
-0.011538798
-0.010382272
-0.0092809546
-0.0082356966
-0.0072462893
-0.0063115064
-0.0054290822
-0.0045958077
-0.0038068885
-0.0030581899
-0.002336304
-0.0016592969
-0.00091583954
-0.00053989467
-0.022162132
-0.023170256
-0.024223232
-0.025351464
-0.026430465
-0.027414075
-0.028312268
-0.029130703
-0.02986052
-0.030490522
-0.03101308
-0.031422861
-0.031715177
-0.031885989
-0.031932463
-0.031853219
-0.031648342
-0.031319378
-0.03086934
-0.030302705
-0.029625349
-0.028844452
-0.02796836
-0.02700642
-0.025968794
-0.024866257
-0.023709971
-0.022511267
-0.021281415
-0.020031421
-0.018771828
-0.017512547
-0.016262704
-0.015030522
-0.013823231
-0.012647006
-0.011506934
-0.010406999
-0.009350091
-0.0083380241
-0.0073715558
-0.0064504066
-0.0055732305
-0.004737694
-0.0039399304
-0.0031764961
-0.0024357557
-0.001733605
-0.00097080923
-0.00053940852
-0.017668603
-0.018625017
-0.01962246
-0.020685645
-0.021714757
-0.022672093
-0.023564861
-0.024396881
-0.025160204
-0.025844781
-0.02644324
-0.026949918
-0.027359556
-0.027667307
-0.027869208
-0.027962413
-0.027945248
-0.027817241
-0.027579173
-0.027233116
-0.026782429
-0.026231709
-0.025586724
-0.024854302
-0.024042202
-0.02315896
-0.022213709
-0.021215998
-0.020175593
-0.019102277
-0.018005671
-0.01689505
-0.015779188
-0.014666215
-0.013563505
-0.01247758
-0.011414045
-0.010377539
-0.0093717134
-0.0083992092
-0.0074616548
-0.0065596583
-0.0056927665
-0.0048595235
-0.0040569941
-0.003282482
-0.0025258917
-0.0018017292
-0.0010194901
-0.00054353646
-0.013699616
-0.014600117
-0.015537755
-0.016532448
-0.017504906
-0.018424689
-0.019296957
-0.020124214
-0.020899512
-0.021614047
-0.022260984
-0.02283472
-0.023329856
-0.023741206
-0.024064181
-0.024295009
-0.0244308
-0.024469603
-0.024410484
-0.02425359
-0.024000185
-0.023652651
-0.023214463
-0.022690142
-0.02208517
-0.021405887
-0.020659366
-0.019853268
-0.018995677
-0.018094938
-0.017159484
-0.016197666
-0.015217599
-0.014227013
-0.013233121
-0.012242509
-0.011261038
-0.010293773
-0.0093449243
-0.008417802
-0.0075147792
-0.0066372625
-0.0057856349
-0.0049592916
-0.0041562079
-0.0033744715
-0.0026053424
-0.0018626055
-0.0010620931
-0.00055045099
-0.010212414
-0.011056409
-0.011933618
-0.012859846
-0.013772914
-0.014648585
-0.015490477
-0.016300142
-0.017071629
-0.017797388
-0.018471277
-0.019088014
-0.019642358
-0.020129129
-0.020543511
-0.020881238
-0.021138668
-0.021312852
-0.021401618
-0.021403654
-0.021318567
-0.021146921
-0.020890247
-0.020551037
-0.020132713
-0.019639563
-0.019076668
-0.018449795
-0.01776528
-0.017029896
-0.016250707
-0.015434921
-0.014589745
-0.013722239
-0.012839185
-0.011946958
-0.011051423
-0.010157831
-0.0092707425
-0.0083939535
-0.0075304346
-0.0066822757
-0.0058506122
-0.0050356368
-0.0042361927
-0.0034511642
-0.0026730381
-0.0019153658
-0.001098819
-0.00055833146
-0.007168468
-0.0079580616
-0.0087769699
-0.0096374526
-0.01049159
-0.011320421
-0.012126378
-0.012910297
-0.013667169
-0.014390635
-0.015075312
-0.015716377
-0.016308948
-0.016848079
-0.017329011
-0.017747317
-0.018098973
-0.018380428
-0.018588691
-0.018721414
-0.018776964
-0.018754483
-0.018653927
-0.018476087
-0.018222597
-0.017895912
-0.017499274
-0.017036647
-0.016512642
-0.015932423
-0.015301593
-0.014626078
-0.013911996
-0.01316553
-0.0123928
-0.01159974
-0.010791976
-0.0099747223
-0.0091526768
-0.008329934
-0.0075098982
-0.0066952085
-0.0058876458
-0.0050881218
-0.0042962866
-0.0035118068
-0.002728305
-0.0019594095
-0.0011297745
-0.0005657868
-0.0045348711
-0.0052737741
-0.0060382424
-0.0068374164
-0.0076352541
-0.0084172664
-0.0091849493
-0.0099385853
-0.010674008
-0.011385946
-0.012069768
-0.012721178
-0.013335744
-0.013908901
-0.014436128
-0.014913068
-0.015335592
-0.015699859
-0.016002393
-0.016240169
-0.016410686
-0.016512034
-0.016542949
-0.016502859
-0.016391914
-0.016210998
-0.015961728
-0.015646429
-0.015268092
-0.014830319
-0.014337248
-0.013793461
-0.013203886
-0.01257369
-0.011908165
-0.011212609
-0.010492215
-0.0097519549
-0.0089964711
-0.0082299716
-0.0074561291
-0.0066779866
-0.0058978487
-0.0051172497
-0.0043365672
-0.0035562108
-0.0027708636
-0.0019944003
-0.0011549779
-0.00057192595
-0.0022858146
-0.0029793723
-0.003694918
-0.0044389387
-0.0051852169
-0.005922996
-0.0066530201
-0.0073751257
-0.0080858751
-0.0087809514
-0.0094564205
-0.010108513
-0.010733283
-0.011326601
-0.01188429
-0.01240221
-0.01287631
-0.013302682
-0.013677627
-0.013997727
-0.014259922
-0.01446157
-0.014600517
-0.014675148
-0.014684438
-0.014627985
-0.014506036
-0.014319487
-0.014069882
-0.013759384
-0.013390737
-0.012967207
-0.012492513
-0.011970744
-0.011406265
-0.010803618
-0.010167416
-0.0095022316
-0.0088124852
-0.0081023367
-0.0073755716
-0.006635494
-0.0058848044
-0.0051255495
-0.0043587402
-0.0035854655
-0.0028013885
-0.0020206994
-0.0011747567
-0.00057645209
-0.00039624323
-0.0010498984
-0.0017223649
-0.0024177447
-0.0031178898
-0.0038151551
-0.0045096785
-0.0052009244
-0.0058860599
-0.0065615799
-0.0072241649
-0.0078705328
-0.0084972021
-0.009100488
-0.0096765908
-0.01022166
-0.010731835
-0.011203281
-0.011632254
-0.012015156
-0.012348602
-0.012629481
-0.012855023
-0.013022855
-0.013131063
-0.013178237
-0.013163512
-0.0130866
-0.012947804
-0.012748025
-0.012488746
-0.012172013
-0.011800386
-0.011376885
-0.010904924
-0.010388228
-0.0098307411
-0.0092365276
-0.0086096654
-0.0079541337
-0.0072736967
-0.0065717884
-0.0058513802
-0.0051149169
-0.0043639388
-0.0036001301
-0.0028200393
-0.002038174
-0.00118886
-0.00057893153
0.0011304391
0.00050928964
-0.00012772025
-0.00078294177
-0.0014446303
-0.00210758
-0.0027714334
-0.0034353569
-0.0040970028
-0.004753523
-0.0054021078
-0.0060398919
-0.0066638044
-0.0072705633
-0.0078567328
-0.0084187658
-0.0089530323
-0.0094558531
-0.0099235439
-0.010352466
-0.01073908
-0.011080005
-0.011372077
-0.011612408
-0.011798448
-0.011928041
-0.011999474
-0.012011527
-0.011963504
-0.011855262
-0.011687219
-0.011460359
-0.011176212
-0.010836831
-0.010444736
-0.010002862
-0.009514481
-0.0089831175
-0.0084124483
-0.0078061965
-0.0071680151
-0.0065013675
-0.0058093908
-0.0050948207
-0.0043596188
-0.003605965
-0.0028311779
-0.0020500352
-0.0011995472
-0.00058052655
0.0023366692
0.0017422876
0.0011343235
0.00051204121
-0.00011780731
-0.00075196262
-0.0013896863
-0.0020298962
-0.0026706122
-0.0033094982
-0.0039441488
-0.0045720358
-0.0051904257
-0.0057963764
-0.006386769
-0.0069583342
-0.0075076729
-0.0080312827
-0.0085255913
-0.0089869978
-0.0094119184