/*--------------------------------*- C++ -*----------------------------------*\
  =========                 |
  \\      /  F ield         | OpenFOAM: The Open Source CFD Toolbox
   \\    /   O peration     | Website:  https://openfoam.org
    \\  /    A nd           | Version:  6
     \\/     M anipulation  |
\*---------------------------------------------------------------------------*/
FoamFile
{
    version     2.0;
    format      ascii;
    class       surfaceScalarField;
    location    "216";
    object      phi_0;
}
// * * * * * * * * * * * * * * * * * * * * * * * * * * * * * * * * * * * * * //

dimensions      [0 3 -1 0 0 0 0];

internalField   nonuniform List<scalar> 
18180
(
0.00031872915
-0.00016315995
-0.0001555692
0.0013092106
-0.0013669155
0.00037643407
0.0030328866
-0.0033336191
0.0016099431
0.0055497716
-0.0059759578
0.0034590727
0.0089181939
-0.0092390777
0.0058706555
0.013192808
-0.013079527
0.0088049131
0.018421935
-0.017459838
0.01223071
0.024644595
-0.022345796
0.016123135
0.031887358
-0.027703312
0.020460549
0.040161266
-0.033495802
0.025221894
0.049459149
-0.039682433
0.03038455
0.0597537
-0.046217202
0.035922652
0.070996707
-0.053048842
0.041805835
0.083119909
-0.060121576
0.047998374
0.09603808
-0.067376828
0.054458657
0.10965486
-0.074755988
0.061139203
0.1238708
-0.082204079
0.067988147
0.13859852
-0.089674062
0.074946335
0.15383662
-0.097148807
0.08191071
-0.10462594
0.088678864
0.1697837
0.00039749694
-0.00056065689
0.0016095942
-0.0025790127
0.0036893168
-0.0054133417
0.0066874413
-0.0089740823
0.010650648
-0.013202285
0.015617864
-0.018046743
0.021616251
-0.023458225
0.028657247
-0.029386792
0.036732932
-0.035778996
0.045813129
-0.042575999
0.055843671
-0.049712974
0.066746184
-0.057119715
0.078419638
-0.064722297
0.090743753
-0.07244569
0.10358404
-0.080217112
0.11679788
-0.087969834
0.13024075
-0.095646948
0.14377295
-0.10320626
0.15725855
-0.11063441
-0.11786187
0.17049448
0.00048062328
-0.0010412802
0.0019186976
-0.0040170871
0.0043524774
-0.0078471215
0.0078165608
-0.012438166
0.012337661
-0.017723385
0.017929201
-0.023638283
0.024586241
-0.030115265
0.0322812
-0.037081751
0.040960828
-0.044458624
0.050544906
-0.052160077
0.060927051
-0.060095119
0.071977787
-0.068170451
0.083549777
-0.076294287
0.09548479
-0.084380703
0.10762167
-0.092353989
0.11980424
-0.1001524
0.13188799
-0.1077307
0.14374347
-0.11506174
0.15524869
-0.12213963
-0.12891427
0.16630109
0.00056616952
-0.0016074497
0.0022279418
-0.0056788593
0.0050006097
-0.010619789
0.008894008
-0.016331564
0.013905254
-0.02273463
0.020011876
-0.029744905
0.02716648
-0.037269869
0.035293407
-0.045208678
0.044287846
-0.053453063
0.054017764
-0.061889995
0.064328706
-0.070406061
0.075051116
-0.078892862
0.08600951
-0.08725268
0.097032484
-0.095403677
0.10796245
-0.10328396
0.11866395
-0.1108539
0.12902964
-0.11809639
0.13898296
-0.12501507
0.14847491
-0.13163158
-0.13794518
0.15750582
0.00065088607
-0.0022583358
0.002524341
-0.0075523142
0.0056036331
-0.013699082
0.0098644625
-0.020592393
0.015264608
-0.028134775
0.021736405
-0.036216703
0.029182475
-0.044715939
0.037474887
-0.053501089
0.046457994
-0.06243617
0.055954828
-0.07138683
0.065776422
-0.080227655
0.075733003
-0.088849443
0.085645708
-0.097165386
0.095357388
-0.10511536
0.1047412
-0.11266777
0.11370619
-0.11981888
0.12219936
-0.12658957
0.13020456
-0.13302027
0.137738
-0.13916502
-0.14506756
0.14486038
0.00073063566
-0.0029889714
0.0027920856
-0.0096137642
0.006126573
-0.017033569
0.01066671
-0.02513253
0.016322647
-0.033790712
0.022975239
-0.042869295
0.030474424
-0.052215123
0.038642392
-0.061669057
0.047281181
-0.071074959
0.056183725
-0.080289375
0.065146878
-0.089190807
0.073984591
-0.097687156
0.082539477
-0.10572027
0.090691295
-0.11326718
0.098361451
-0.12033793
0.1055133
-0.12697073
0.11214879
-0.13322506
0.1183024
-0.13917388
0.12403363
-0.14489624
-0.15046328
0.12942935
0.00080073102
-0.0037897024
0.0030139155
-0.011826949
0.006532893
-0.020552546
0.01124005
-0.029839687
0.016992694
-0.039543357
0.023618541
-0.049495142
0.03091821
-0.059514793
0.038673312
-0.06942416
0.046658767
-0.079060413
0.054657392
-0.088287999
0.062474454
-0.097007869
0.069949951
-0.10516265
0.076966961
-0.11273728
0.0834551
-0.11975531
0.089389112
-0.12627194
0.094783318
-0.13236494
0.09968331
-0.13812505
0.1041565
-0.14364707
0.10828311
-0.14902285
-0.15433355
0.11215338
0.00085605854
-0.004645761
0.00317206
-0.01414295
0.0067872246
-0.024167711
0.0115298
-0.034582263
0.017203431
-0.045216987
0.023586545
-0.055878256
0.030439871
-0.066368119
0.037519324
-0.076503613
0.044591795
-0.086132884
0.051451001
-0.095147205
0.05793063
-0.1034875
0.063912776
-0.1111448
0.069330645
-0.11815515
0.074165696
-0.12459036
0.078440259
-0.1305465
0.082207342
-0.13613202
0.085539508
-0.14145722
0.088518569
-0.14662613
0.091227367
-0.15173165
-0.15685204
0.093745853
0.0008902622
-0.0055360232
0.0032482827
-0.016500971
0.006857621
-0.027777049
0.011492462
-0.039217104
0.016906807
-0.050631332
0.022838892
-0.061810341
0.029023667
-0.072552894
0.035209248
-0.082689194
0.041173927
-0.092097563
0.046740396
-0.10071367
0.051784656
-0.10853176
0.056238409
-0.11559855
0.060085142
-0.12200188
0.063351251
-0.12785647
0.066094219
-0.13328947
0.068390062
-0.13842787
0.070321931
-0.14338909
0.071971245
-0.14827545
0.073411935
-0.15317234
-0.15814769
0.074707588
0.00089981809
-0.0064358413
0.00323338
-0.018834533
0.0067291631
-0.031272832
0.011111175
-0.043599116
0.016092483
-0.05561264
0.021384621
-0.067102479
0.026713883
-0.077882156
0.031839115
-0.087814426
0.036567086
-0.096825533
0.040762273
-0.10490886
0.044349476
-0.11211896
0.047309352
-0.11855843
0.049668409
-0.12436094
0.051485818
-0.12967388
0.05283953
-0.13464318
0.053813825
-0.13940216
0.054489717
-0.14406498
0.054938826
-0.14872456
0.055220554
-0.15345407
0.055380989
-0.15830813
-0.0002023782
0.0002023782
-9.5786155e-13
-0.00067774624
0.00047536804
-2.6980525e-12
-0.0013424253
0.00066467907
-3.3009604e-12
-0.0021322934
0.00078986809
-3.3471673e-12
-0.0029957721
0.00086347865
-3.4056055e-12
-0.003890739
0.00089496692
-3.3777269e-12
-0.0047822942
0.00089155522
-3.4114384e-12
-0.0056408911
0.00085859692
-3.2537427e-12
-0.0064408659
0.00079997482
-3.1541369e-12
-0.0071592867
0.00071842081
-2.8099963e-12
-0.0077750351
0.00061574837
-2.551507e-12
-0.0082680708
0.00049303574
-2.0203736e-12
-0.0086188523
0.00035078147
-1.5817008e-12
-0.0088079031
0.00018905075
-8.279261e-13
-0.0088155566
7.6535713e-06
-1.6165061e-13
-0.0086219804
-0.00019357627
8.5486973e-13
-0.0082074391
-0.00041454122
1.8792992e-12
-0.0075518901
-0.000655549
3.1298903e-12
-0.0066345771
-0.00091731302
4.5586604e-12
-0.0011862297
-0.0054483475
6.4450475e-12
-0.00018797442
0.00039035262
-0.00062500689
0.0009124005
-0.001228753
0.0012684252
-0.0019351942
0.0014963092
-0.0026921388
0.0016204233
-0.0034562836
0.0016591117
-0.0041910666
0.0016263383
-0.0048648583
0.0015323886
-0.0054495235
0.00138464
-0.0059192865
0.0011881838
-0.0062498154
0.00094627726
-0.0064174805
0.00066070087
-0.0063987495
0.0003320505
-0.0061697084
-3.9990417e-05
-0.0057057361
-0.00045631869
-0.0049814248
-0.00091788757
-0.0039707954
-0.0014251706
-0.0026472184
-0.001979126
-0.00098326404
-0.0025812674
-0.0032017789
0.0010322852
-0.00015892782
0.00054928044
-0.00051889135
0.001272364
-0.0010007698
0.0017503037
-0.0015412592
0.0020367986
-0.0020873496
0.0021665137
-0.002593735
0.002165497
-0.0030208681
0.0020534714
-0.0033332936
0.0018448141
-0.0034983024
0.0015496488
-0.0034848554
0.0011747367
-0.0032626998
0.00072412168
-0.0028016494
0.00019965043
-0.0020709505
-0.00039864838
-0.0010387684
-0.0010721725
0.000328242
-0.0018233291
0.0020652131
-0.0026548587
0.004209024
-0.0035689815
0.0067979943
-0.0045680963
0.0098718154
-0.0056550885
-0.0067797312
0.013449768
-0.00011756693
0.00066684737
-0.00036699847
0.0015217956
-0.00067351354
0.0020568187
-0.00097482552
0.0023381106
-0.0012168539
0.0024085421
-0.0013515942
0.0023002373
-0.0013354601
0.0020373374
-0.0011278293
0.0016371833
-0.00068984654
0.001111666
1.6528311e-05
0.00046836188
0.0010293045
-0.00028865448
0.0023871072
-0.0011581523
0.0041297229
-0.0021412641
0.0062985808
-0.0032410304
0.0089372592
-0.0044620075
0.012092042
-0.0058096411
0.015812292
-0.0072892317
0.020150153
-0.0089059577
0.025160336
-0.010665272
-0.012492606
0.030873211
-6.690763e-05
0.000733755
-0.0001791665
0.0016340544
-0.00026653384
0.0021441861
-0.00026769159
0.0023392683
-0.00012719456
0.0022680451
0.00020616632
0.0019668764
0.00078069256
0.0014628111
0.0016429475
0.00077492835
0.0028387262
-8.4112675e-05
0.004413841
-0.0011067529
0.0064146851
-0.0022894986
0.0088886493
-0.0036321165
0.011884447
-0.0051370617
0.015452444
-0.0068090274
0.019645033
-0.0086545963
0.024517252
-0.010681861
0.030127666
-0.012899646
0.036538873
-0.015317164
0.043818269
-0.017944668
-0.020682521
0.052008184
-9.9846354e-06
0.00074373963
3.4534923e-05
0.0015895349
0.00019989002
0.001978831
0.0005467654
0.0019923929
0.0011322465
0.001682564
0.00201098
0.0010881429
0.0032361382
0.00023765292
0.0048603016
-0.00084923501
0.0069361166
-0.0021599277
0.0095166702
-0.0036873064
0.012655698
-0.0054285263
0.016407688
-0.0073841069
0.02082781
-0.0095571839
0.025971752
-0.011952969
0.03189562
-0.014578465
0.038656244
-0.017442485
0.046312356
-0.020555758
0.054926655
-0.023931463
0.064569636
-0.027587649
-0.03140557
0.075292686
5.0751274e-05
0.00069298836
0.00026565761
0.0013746285
0.00070825398
0.0015362346
0.0014390296
0.0012616173
0.002516819
0.00060477458
0.0039995643
-0.00039460244
0.0059449113
-0.0017076941
0.0084105985
-0.0033149223
0.011454588
-0.0052039169
0.015135033
-0.0073677513
0.019510011
-0.0098035045
0.024636997
-0.012511093
0.030572125
-0.015492312
0.037369295
-0.018750138
0.045079233
-0.022288403
0.053748952
-0.026112204
0.063422562
-0.030229368
0.074144663
-0.034653563
0.085969287
-0.039412274
-0.044388474
0.098952191
0.00011379625
0.00057919211
0.00050850317
0.00097992163
0.0012459817
0.00079875601
0.0023867765
0.00012082262
0.0039912389
-0.0009996879
0.006119873
-0.0025232365
0.0088333154
-0.0044211365
0.012192159
-0.0066737661
0.016256549
-0.0092683066
0.021085434
-0.012196637
0.026735533
-0.015453604
0.033260006
-0.019035565
0.040706863
-0.02293917
0.049117166
-0.027160441
0.058523124
-0.031694361
0.068946471
-0.036535551
0.080398286
-0.041681182
0.092882108
-0.047137386
0.10640544
-0.052935606
-0.058995637
0.1210126
0.00017849574
0.00040069637
0.00076002958
0.00039838779
0.0018053382
-0.00024655258
0.0033747123
-0.0014485515
0.0055289932
-0.0031539688
0.0083293159
-0.0053235592
0.011836485
-0.0079283056
0.016110052
-0.010947333
0.021207034
-0.014365289
0.027180292
-0.018169895
0.034076604
-0.022349915
0.041934461
-0.026893422
0.05078164
-0.03178635
0.06063257
-0.037011371
0.071485472
-0.042547263
0.083319359
-0.048369438
0.096091826
-0.054453649
0.10974039
-0.060785947
0.12419596
-0.067391178
-0.074274584
0.13947491
0.00024512717
0.001019949
0.0023833395
0.0043938607
0.0071105475
0.010591901
0.014894306
0.020070108
0.026165369
0.033217368
0.041252002
0.050281232
0.060300717
0.07128772
0.083199115
0.09596888
0.10950338
0.12366377
0.1381833
0.15258758
-0.0035077232
-0.0019406243
1.2786646e-11
-0.0012859395
-0.0022217837
1.7023131e-11
0.0011946684
-0.0024806078
1.9816395e-11
0.0038772012
-0.0026825328
2.1051395e-11
0.0067348552
-0.0028576541
2.3754621e-11
0.0097503247
-0.0030154695
2.7204542e-11
0.012904675
-0.0031543502
3.0274348e-11
0.016179883
-0.0032752083
3.2904301e-11
0.019560248
-0.0033803648
3.4429412e-11
0.02303155
-0.0034713026
3.4858423e-11
0.026580504
-0.0035489538
3.4360485e-11
0.030194684
-0.0036141801
3.2549355e-11
0.033862448
-0.0036677633
2.9612348e-11
0.037572798
-0.0037103502
2.5071514e-11
0.041315283
-0.0037424855
1.892049e-11
0.045079932
-0.0037646488
1.1008413e-11
0.048857203
-0.0037772714
1.5577912e-12
0.052637953
-0.0037807499
-9.5856493e-12
0.056413414
-0.0037754608
-2.2080762e-11
0.060175186
-0.0037617719
-3.5950954e-11
0.063915237
-0.003740051
-5.0471752e-11
0.06762591
-0.0037106724
-6.523266e-11
0.07129993
-0.0036740206
-7.9148241e-11
0.074930423
-0.0036304925
-9.153516e-11
0.078510921
-0.0035804975
-1.0103314e-10
0.082035377
-0.0035244564
-1.0671677e-10
0.085498177
-0.0034627994
-1.0696932e-10
0.08889414
-0.0033959629
-1.0073099e-10
0.092218526
-0.003324386
-8.6445186e-11
0.095467032
-0.0032485067
-6.3532282e-11
0.098635792
-0.0031687594
-3.143312e-11
0.10172136
-0.0030855699
8.7986088e-12
0.10472072
-0.0029993541
5.5604263e-11
0.10763123
-0.0029105153
1.0550793e-10
0.11045067
-0.0028194427
1.5459091e-10
0.11317719
-0.0027265121
1.974008e-10
0.11580927
-0.0026320858
2.2872821e-10
0.11834579
-0.002536516
2.4290473e-10
0.12078594
-0.0024401516
2.3554315e-10
0.12312928
-0.0023433389
2.0348134e-10
0.12537574
-0.0022464638
1.4657075e-10
0.12752562
-0.0021498774
6.7778799e-11
0.12957989
-0.0020542693
-2.5565532e-11
0.13153952
-0.0019596281
-1.2249105e-10
0.13340859
-0.0018690744
-2.0929217e-10
0.13518562
-0.0017770295
-2.7134756e-10
0.13689505
-0.0017094313
-2.9609017e-10
0.13849274
-0.0015976896
-2.7571561e-10
0.1401795
-0.0016867579
-2.1632996e-10
-0.0013309538
-6.9700717e-11
0.0028528966
-0.0037612356
0.0049500385
-0.0043189257
0.0072928924
-0.0048234617
0.0098190162
-0.0052086566
0.012507349
-0.0055459867
0.015345565
-0.0058536853
0.018316923
-0.0061257083
0.021405017
-0.0063633021
0.024595827
-0.0065711754
0.027876592
-0.0067520674
0.031235179
-0.0069075409
0.034660107
-0.0070391084
0.03814052
-0.0071481757
0.04166607
-0.0072359003
0.04522684
-0.0073032553
0.048813296
-0.007351105
0.052416259
-0.0073802348
0.056026885
-0.0073913755
0.059636653
-0.0073852288
0.06323737
-0.0073624889
0.066821176
-0.0073238571
0.070380557
-0.0072700534
0.073908359
-0.0072018226
0.077397804
-0.0071199377
0.080842506
-0.0070251995
0.084236483
-0.0069184335
0.087574169
-0.0068004852
0.09085042
-0.006672214
0.09406052
-0.0065344858
0.097200179
-0.0063881657
0.10026553
-0.0062341111
0.10325313
-0.0060731645
0.10615992
-0.0059061488
0.10898327
-0.0057338624
0.1117209
-0.0055570771
0.11437093
-0.0053765374
0.1169318
-0.0051929636
0.11940234
-0.0050070551
0.1217817
-0.0048195067
0.12406937
-0.0046310075
0.12626523
-0.0044423284
0.12836952
-0.0042541697
0.13038316
-0.0040679081
0.13230706
-0.0038835248
0.13414521
-0.0037072282
0.13589615
-0.003527961
0.13758384
-0.0033971213
0.13916518
-0.0031790372
0.14083579
-0.0033573688
-0.0026594534
0.0150211
-0.0053325677
0.016852195
-0.0061500208
0.018905726
-0.0068769931
0.021111766
-0.0074146961
0.023458679
-0.0078928998
0.025942813
-0.0083378192
0.028551549
-0.0087344447
0.031271408
-0.0090831608
0.034091288
-0.009391056
0.037000961
-0.0096617397
0.039990304
-0.0098968843
0.043049458
-0.010098262
0.046168898
-0.010267615
0.049339368
-0.01040637
0.052551839
-0.010515726
0.055797499
-0.010596765
0.059067759
-0.010650494
0.062354256
-0.010677872
0.065648867
-0.01067984
0.068943727
-0.010657349
0.072231248
-0.010611378
0.075504143
-0.010542948
0.078755446
-0.010453126
0.081978536
-0.010343028
0.085167155
-0.010213818
0.088315424
-0.010066702
0.091417858
-0.0099029192
0.094469375
-0.0097237311
0.0974653
-0.009530411
0.10040137
-0.0093242347
0.10327372
-0.009106466
0.10607891
-0.0088783494
0.10881386
-0.0086411012
0.1114759
-0.0083959026
0.11406272
-0.008143897
0.11657237
-0.0078861885
0.11900325
-0.0076238464
0.12135411
-0.0073579116
0.12362402
-0.0070894186
0.12581241
-0.0068193965
0.12791908
-0.0065489975
0.12994418
-0.0062792709
0.13188855
-0.006012274
0.13375302
-0.0057479963
0.13554144
-0.0054956509
0.13725243
-0.0052389471
0.13890899
-0.0050536852
0.14047037
-0.0047404103
0.14212154
-0.0050085403
-0.0039961904
0.032056497
-0.0065158539
0.033471688
-0.0075652125
0.035077186
-0.0084824908
0.036800013
-0.0091375234
0.038640856
-0.0097337423
0.040606011
-0.010302974
0.042688306
-0.01081674
0.04487822
-0.011273074
0.047168174
-0.011681011
0.049550942
-0.012044507
0.052018815
-0.012364758
0.054563838
-0.012643285
0.057177999
-0.012881776
0.059853256
-0.013081627
0.062581546
-0.013244016
0.065354825
-0.013370045
0.068165113
-0.013460782
0.07100453
-0.01351729
0.073865345
-0.013540655
0.076740006
-0.01353201
0.079621179
-0.013492552
0.082501786
-0.013423555
0.08537503
-0.01332637
0.08823443
-0.013202428
0.091073841
-0.013053229
0.093887475
-0.012880336
0.096669918
-0.012685362
0.09941614
-0.012469953
0.1021215
-0.012235773
0.10478176
-0.011984492
0.10739306
-0.011717766
0.10995194
-0.011437228
0.11245531
-0.011144474
0.11490047
-0.010841058
0.11728505
-0.010528484
0.11960707
-0.010208206
0.12186486
-0.0098816366
0.1240571
-0.0095501506
0.1261828
-0.0092151179
0.12824131
-0.0088779053
0.13023236
-0.0085400436
0.13215602
-0.0082029321
0.13401304
-0.0078693001
0.13580422
-0.00753917
0.1375332
-0.0072246362
0.1391988
-0.0069045416
0.14082264
-0.0066775261
0.14236743
-0.0062852036
0.14400289
-0.0066440022
-0.0053570585
0.052648471
-0.0071561408
0.05348905
-0.008405792
0.054483157
-0.0094765975
0.055565103
-0.010219469
0.056749705
-0.010918345
0.058051258
-0.011604527
0.059468272
-0.012233754
0.060995878
-0.012800681
0.062629867
-0.013314999
0.06436564
-0.013780281
0.066197677
-0.014196795
0.068119708
-0.014565316
0.070124969
-0.014887037
0.072206358
-0.015163016
0.074356527
-0.015394186
0.076567964
-0.015581481
0.078833076
-0.015725893
0.081144269
-0.015828483
0.083494014
-0.015890401
0.08587491
-0.015912905
0.088279728
-0.01589737
0.090701468
-0.015845294
0.093133388
-0.015758291
0.095569049
-0.015638088
0.098002335
-0.015486515
0.10042748
-0.015305479
0.10283908
-0.015096962
0.10523211
-0.014862985
0.10760194
-0.014605602
0.10994431
-0.014326867
0.11225537
-0.014028826
0.11453164
-0.013713491
0.11677
-0.013382839
0.11896773
-0.013038785
0.12112243
-0.012683192
0.12323209
-0.012317863
0.125295
-0.011944546
0.1273098
-0.011564951
0.12927547
-0.011180783
0.13119131
-0.010793746
0.13305701
-0.010405749
0.13487263
-0.010018546
0.13663886
-0.0096355301
0.13835647
-0.009256787
0.14002898
-0.0088971385
0.14165546
-0.0085310244
0.14325588
-0.0082779507
0.14479738
-0.0078267034
0.14643077
-0.0082773853
-0.0067652968
0.075221662
-0.0070851168
0.075326613
-0.0085107432
0.075550971
-0.009700955
0.07585125
-0.010519749
0.076255487
-0.011322581
0.076780533
-0.012129573
0.077429424
-0.012882645
0.07820209
-0.013573347
0.07909684
-0.014209749
0.080110525
-0.014793965
0.081238901
-0.015325171
0.082476672
-0.015803088
0.083817655
-0.01622802
0.085255068
-0.01660043
0.086781737
-0.016920854
0.088390207
-0.017189952
0.09007286
-0.017408547
0.091822019
-0.017577641
0.093630038
-0.01769842
0.09548938
-0.017772247
0.09739268
-0.01780067
0.099332793
-0.017785408
0.10130285
-0.01772835
0.10329629
-0.01763153
0.1053069
-0.017497117
0.1073288
-0.017327381
0.10935652
-0.017124682
0.11138497
-0.016891434
0.11340945
-0.016630087
0.11542568
-0.016343096
0.11742976
-0.016032901
0.11941818
-0.01570191
0.12138781
-0.015352478
0.12333593
-0.014986897
0.12526013
-0.014607393
0.12715839
-0.01421612
0.12902901
-0.013815172
0.13087066
-0.013406598
0.13268232
-0.012992442
0.13446332
-0.012574752
0.1362134
-0.012155824
0.13793262
-0.011737772
0.13962174
-0.011324644
0.14128158
-0.010916631
0.14291555
-0.010531104
0.14452315
-0.010138626
0.1461225
-0.009877304
0.1476859
-0.0093900977
0.14934278
-0.0099342725
-0.0082530184
0.098025189
-0.0061581154
0.097257908
-0.0077434623
0.096581609
-0.0090246559
0.095997164
-0.0099353033
0.0955407
-0.010866118
0.09522345
-0.011812323
0.095050781
-0.012709976
0.095026696
-0.013549262
0.095150728
-0.014333781
0.095419611
-0.015062848
0.095828985
-0.015734545
0.096373441
-0.016347543
0.097046492
-0.016901072
0.097840908
-0.017394845
0.098749003
-0.017828949
0.099762806
-0.018203755
0.10087418
-0.018519922
0.10207495
-0.018778405
0.10335697
-0.018980444
0.10471226
-0.019127541
0.10613304
-0.019221449
0.10761179
-0.019264153
0.10914129
-0.019257851
0.11071469
-0.019204928
0.11232549
-0.019107926
0.11396764
-0.018969523
0.11563544
-0.01879249
0.11732368
-0.018579671
0.11902754
-0.018333943
0.12074263
-0.01805819
0.12246501
-0.017755282
0.12419114
-0.017428039
0.12591789
-0.017079223
0.12764251
-0.016711525
0.12936267
-0.016327549
0.13107637
-0.015929822
0.132782
-0.0155208
0.13447829
-0.015102882
0.13616432
-0.014678473
0.13783953
-0.014249972
0.13950379
-0.013820075
0.14115729
-0.013391273
0.14280091
-0.012968264
0.14443566
-0.012551385
0.14606493
-0.012160374
0.14768878
-0.011762475
0.14932343
-0.011511951
0.15094679
-0.011013463
0.15266577
-0.011653253
-0.0098619828
0.11918896
-0.0043344679
0.11749635
-0.0060508544
0.11585683
-0.0073851335
0.11435429
-0.0084327699
0.11302499
-0.0095368115
0.11186642
-0.010653754
0.11088405
-0.011727611
0.11008417
-0.012749382
0.10946619
-0.013715796
0.10902551
-0.014622165
0.10875631
-0.015465352
0.10865195
-0.016243177
0.10870481
-0.016953938
0.1089066
-0.017596634
0.10924859
-0.018170935
0.10972183
-0.018676996
0.1103173
-0.019115391
0.11102599
-0.019487095
0.11183901
-0.019793471
0.1127477
-0.020036225
0.11374363
-0.020217384
0.11481874
-0.020339257
0.1159653
-0.020404419
0.11717604
-0.02041566
0.11844408
-0.020375964
0.11976302
-0.020288463
0.12112693
-0.020156404
0.12253036
-0.019983105
0.12396834
-0.019771923
0.12543638
-0.019526223
0.12693043
-0.019249338
0.12844694
-0.01894455
0.12998279
-0.018615067
0.13153527
-0.018264005
0.13310211
-0.017894389
0.13468143
-0.017509143
0.13627174
-0.017111112
0.13787194
-0.016703079
0.13948128
-0.016287821
0.14109944
-0.015868123
0.14272645
-0.015447093
0.1443628
-0.015027618
0.14600959
-0.014615053
0.14766812
-0.014209922
0.1493419
-0.013834151
0.15103164
-0.013452218
0.15275173
-0.013232042
0.15448597
-0.012747701
0.15631857
-0.013485852
-0.011643538
0.13689593
-0.0017554962
0.13437797
-0.0035328915
0.1318194
-0.0048265627
0.12946233
-0.0060757016
0.12733397
-0.0074084527
0.1254157
-0.0087354787
0.12371034
-0.010022251
0.12222298
-0.011262024
0.12095207
-0.012444891
0.11989185
-0.01356194
0.1190348
-0.0146083
0.11837257
-0.015580953
0.11789618
-0.016477547
0.11759609
-0.017296546
0.11746244
-0.018037285
0.11748522
-0.018699772
0.1176544
-0.019284574
0.11796007
-0.019792767
0.1183925
-0.0202259
0.11894223
-0.020585956
0.11960015
-0.020875294
0.12035751
-0.021096624
0.12120605
-0.021252958
0.12213796
-0.021347563
0.12314592
-0.021383928
0.12422316
-0.021365709
0.12536345
-0.021296686
0.12656106
-0.021180722
0.12781085
-0.021021715
0.12910819
-0.020823563
0.13044898
-0.020590127
0.13182963
-0.020325199
0.13324705
-0.020032483
0.13469862
-0.019715573
0.13618218
-0.019377951
0.13769602
-0.019022984
0.13923885
-0.018653945
0.1408098
-0.018274029
0.14240841
-0.017886428
0.14403462
-0.017494335
0.14568883
-0.0171013
0.14737185
-0.016710633
0.14908515
-0.016328353
0.15083044
-0.015955215
0.15261145
-0.015615167
0.15442969
-0.015270453
0.1562978
-0.015100148
0.15820558
-0.014655483
0.16021499
-0.015495265
-0.013657723
0.15005208
0.00078000564
0.14676313
-0.00024394545
0.14346579
-0.0015292238
0.14041801
-0.0030279222
0.13762312
-0.0046135585
0.13507485
-0.0061872139
0.13277505
-0.0077224509
0.1307238
-0.0092107728
0.12891866
-0.01063975
0.12735443
-0.011997708
0.12602328
-0.013277153
0.12491581
-0.014473483
0.12402184
-0.015583577
0.12333071
-0.016605418
0.12283144
-0.017538015
0.12251292
-0.018381249
0.12236407
-0.019135725
0.12237398
-0.019802679
0.122532
-0.020383915
0.1228278
-0.020881751
0.12325146
-0.02129896
0.12379355
-0.021638716
0.12444514
-0.021904546
0.12519785
-0.022100272
0.12604388
-0.022229961
0.12697605
-0.022297871
0.12798775
-0.022308394
0.12907304
-0.022266009
0.13022655
-0.022175228
0.13144354
-0.022040554
0.13271986
-0.02186644
0.13405191
-0.021657255
0.13543669
-0.021417257
0.13687169
-0.021150577
0.13835495
-0.020861206
0.13988497
-0.020553004
0.14146074
-0.020229715
0.1430817
-0.019894991
0.14474774
-0.019552473
0.14645921
-0.019205798
0.1482169
-0.018858994
0.15002208
-0.01851581
0.15187668
-0.018182962
0.15378291
-0.01786144
0.15574488
-0.017577133
0.15776477
-0.017290347
0.15985412
-0.0171895
0.16200718
-0.016808538
0.16426867
-0.017756757
-0.015969509
0.18890876
0.0053821086
-0.19351086
0.18509872
0.0035660933
0.18170668
0.0018628117
0.17856155
0.00011720455
0.17562599
-0.0016779982
0.17287497
-0.0034361874
0.17029025
-0.0051377337
0.16786285
-0.0067833717
0.16558888
-0.0083657844
0.1634662
-0.0098750219
0.16149293
-0.011303886
0.15966697
-0.012647525
0.15798568
-0.013902285
0.15644576
-0.015065501
0.1550433
-0.016135552
0.15377382
-0.017111772
0.15263241
-0.017994307
0.15161375
-0.018784024
0.15071228
-0.019482447
0.14992223
-0.020091694
0.14923768
-0.020614414
0.14865269
-0.021053731
0.14816133
-0.021413177
0.14775769
-0.02169664
0.14743603
-0.021908297
0.14719071
-0.022052556
0.14701632
-0.022133996
0.14690762
-0.02215731
0.14685964
-0.022127249
0.14686765
-0.022048569
0.1469272
-0.021925991
0.14703411
-0.021764162
0.14718447
-0.02156762
0.14737468
-0.021340781
0.14760139
-0.021087923
0.14786158
-0.020813192
0.14815248
-0.020520614
0.14847162
-0.02021413
0.14881682
-0.019897673
0.1491862
-0.019575173
0.14957819
-0.01925099
0.14999157
-0.018929186
0.15042556
-0.01861695
0.15087963
-0.018315516
0.15135441
-0.018051913
0.15184974
-0.017785679
0.1523701
-0.017709861
0.15291119
-0.017349625
0.15349596
-0.018341529
-0.016562077
0.21685765
0.0087804417
-0.22025598
0.21338376
0.0070399825
0.21017094
0.0050756258
0.20706563
0.0032225196
0.20401903
0.0013685997
0.20106211
-0.00047926464
0.19821174
-0.0022873694
0.19547245
-0.0040440784
0.19285013
-0.0057434624
0.19035161
-0.0073765032
0.18798209
-0.0089343698
0.18574498
-0.010410409
0.18364226
-0.011799564
0.18167463
-0.013097874
0.17984156
-0.014302483
0.17814142
-0.015411636
0.17657168
-0.016424558
0.175129
-0.017341346
0.17380944
-0.01816289
0.17260855
-0.018890801
0.17152147
-0.019527341
0.17054309
-0.020075345
0.16966807
-0.020538156
0.16889098
-0.020919551
0.16820635
-0.021223671
0.16760875
-0.021454952
0.16709281
-0.021618056
0.16665331
-0.021717805
0.16628517
-0.021759118
0.16598356
-0.021746954
0.16574383
-0.021686261
0.1655616
-0.02158193
0.16543274
-0.021438765
0.16535342
-0.021261453
0.16532004
-0.021054552
0.16532934
-0.020822493
0.16537833
-0.020569594
0.16546429
-0.02030009
0.16558483
-0.020018214
0.16573786
-0.019728211
0.16592164
-0.019434767
0.16613476
-0.019142305
0.16637622
-0.018858406
0.16664551
-0.018584811
0.16694249
-0.018348893
0.16726839
-0.018111576
0.16762242
-0.018063893
0.16801289
-0.017740095
0.16842175
-0.018750387
-0.017035842
0.24376657
0.011504397
-0.24649053
0.24091613
0.0098904219
0.23806292
0.0079288379
0.23521595
0.0060694835
0.23233815
0.0042464046
0.22945033
0.0024085577
0.22658371
0.00057925029
0.22375759
-0.001217958
0.22098788
-0.0029737589
0.21829053
-0.0046791526
0.21567939
-0.0063232304
0.21316546
-0.0078964801
0.21075736
-0.0093914566
0.20846163
-0.010802147
0.20628291
-0.012123768
0.20422409
-0.013352815
0.20228652
-0.014486985
0.20047024
-0.015525062
0.19877416
-0.01646681
0.19719625
-0.017312895
0.1957337
-0.018064793
0.19438306
-0.018724706
0.19314038
-0.019295478
0.19200134
-0.019780506
0.19096133
-0.02018366
0.19001558
-0.020509203
0.18915923
-0.020761705
0.18838739
-0.020945972
0.18769525
-0.021066972
0.18707806
-0.021129763
0.18653124
-0.021139441
0.18605039
-0.021101081
0.18563132
-0.021019701
0.1852701
-0.020900225
0.18496301
-0.02074747
0.18470666
-0.020566136
0.18449789
-0.020360826
0.18433387
-0.020136068
0.18421205
-0.019896399
0.18413023
-0.019646386
0.18408651
-0.019391046
0.1840794
-0.019135198
0.18410772
-0.018886725
0.18417105
-0.018648143
0.18426849
-0.018446334
0.18440275
-0.01824584
0.18456744
-0.01822858
0.18478444
-0.017957095
0.18498985
-0.018955792
-0.017368348
0.26927434
0.01353735
-0.2713073
0.2671063
0.012058467
0.26476453
0.0102706
0.26232531
0.0085087105
0.25979655
0.0067751561
0.25718846
0.0050166542
0.25452714
0.0032405697
0.25183677
0.0014724117
0.24913735
-0.00027433672
0.24644868
-0.0019904828
0.24379005
-0.0036646031
0.2411786
-0.0052850306
0.23862906
-0.0068419117
0.2361539
-0.0083269956
0.23376344
-0.0097333062
0.23146583
-0.011055202
0.22926725
-0.012288406
0.2271721
-0.013429911
0.22518318
-0.014477888
0.22330188
-0.015431596
0.22152838
-0.016291292
0.21986181
-0.017058136
0.21830042
-0.017734095
0.21684177
-0.018321847
0.21548279
-0.018824685
0.21422001
-0.01924642
0.2130496
-0.019591294
0.21196751
-0.019863885
0.21096956
-0.020069025
0.21005152
-0.020211723
0.20920917
-0.020297091
0.20843838
-0.020330284
0.20773513
-0.020316448
0.20709558
-0.020260678
0.20651611
-0.020167998
0.20599331
-0.020043342
0.20552406
-0.01989157
0.20510548
-0.019717488
0.20473501
-0.019525932
0.20441041
-0.019321788
0.20412976
-0.019110396
0.20389156
-0.018896997
0.20369454
-0.018689704
0.2035384
-0.018492
0.20342166
-0.018329593
0.20334823
-0.018172411
0.20330693
-0.018187281
0.20333098
-0.017981144
0.20331517
-0.018939983
-0.017537416
0.29298511
0.014868491
-0.29431626
0.29150587
0.01353771
0.28978338
0.011993093
0.28788474
0.010407345
0.28584483
0.0088150675
0.28367446
0.0071870271
0.28139204
0.0055229925
0.27902081
0.0038436416
0.27658207
0.0021643977
0.274096
0.00049559419
0.27158278
-0.0011513843
0.26906214
-0.0027643944
0.26655241
-0.0043321815
0.26407018
-0.005844763
0.26163018
-0.0072933106
0.25924519
-0.0086702083
0.25692596
-0.0099691737
0.2546813
-0.01118526
0.25251821
-0.012314798
0.25044196
-0.013355343
0.24845626
-0.014305596
0.24656345
-0.015165326
0.24476463
-0.015935274
0.24305984
-0.016617054
0.24144821
-0.017213054
0.23992812
-0.017726333
0.23849735
-0.018160519
0.23715317
-0.01851971
0.23589252
-0.018808377
0.23471208
-0.019031276
0.23360835
-0.019193364
0.23257779
-0.019299727
0.23161686
-0.019355516
0.23072208
-0.019365895
0.22989009
-0.019336012
0.22911772
-0.019270972
0.228402
-0.019175843
0.22774019
-0.019055678
0.22712983
-0.018915581
0.2265688
-0.018760749
0.22605523
-0.018596827
0.22558772
-0.018429488
0.22516503
-0.018267012
0.22478699
-0.018113968
0.22445179
-0.017994388
0.22416416
-0.017884781
0.22390927
-0.017932391
0.22372866
-0.017800541
0.22348351