/*--------------------------------*- C++ -*----------------------------------*\
  =========                 |
  \\      /  F ield         | OpenFOAM: The Open Source CFD Toolbox
   \\    /   O peration     | Website:  https://openfoam.org
    \\  /    A nd           | Version:  6
     \\/     M anipulation  |
\*---------------------------------------------------------------------------*/
FoamFile
{
    version     2.0;
    format      ascii;
    class       volVectorField;
    location    "216";
    object      U_0;
}
// * * * * * * * * * * * * * * * * * * * * * * * * * * * * * * * * * * * * * //

dimensions      [0 1 -1 0 0 0 0];

internalField   nonuniform List<vector> 
9200
(
(0.0010393463 0.0014199821 -5.9201837e-20)
(0.013676067 -0.0020583668 4.6042532e-20)
(0.038313167 -0.0058665682 -3.8501732e-20)
(0.072274438 -0.0097635053 -6.0257749e-20)
(0.11376474 -0.013490029 1.8826961e-20)
(0.16158089 -0.016605658 3.2743876e-20)
(0.21467148 -0.018817285 -1.2268005e-20)
(0.27206608 -0.01997389 9.2688592e-21)
(0.33285623 -0.020011223 1.6803426e-20)
(0.39616348 -0.018929051 1.4848071e-21)
(0.46111556 -0.016779814 -2.1456334e-20)
(0.52683687 -0.013657729 2.0669999e-20)
(0.59245069 -0.0096879951 -4.0422131e-20)
(0.65709131 -0.0050157721 -2.1133894e-20)
(0.71992472 0.00020556721 5.9046506e-21)
(0.78017502 0.0058241023 -2.5131667e-20)
(0.8371706 0.011712821 2.5217108e-20)
(0.89046876 0.017918522 2.22432e-20)
(0.93967071 0.024573423 -2.992959e-22)
(0.98205187 0.028293392 -1.669187e-21)
(0.0052521805 -0.0013462731 -1.7059352e-20)
(0.026962501 -0.0089890263 3.974771e-20)
(0.061670116 -0.014809764 2.3576292e-20)
(0.10629489 -0.019172268 -1.1569758e-19)
(0.15873565 -0.022213995 -1.2727087e-20)
(0.21753352 -0.023720683 7.3297079e-20)
(0.28137296 -0.023595093 -3.5476398e-20)
(0.34900601 -0.021868961 -8.3905567e-21)
(0.4192392 -0.018645519 3.4287538e-20)
(0.49090944 -0.014080835 -4.3259575e-20)
(0.56287232 -0.008375944 -3.0338479e-20)
(0.63400847 -0.0017665867 7.1921424e-20)
(0.7032433 0.0054884031 3.8294039e-20)
(0.76957581 0.013118642 -6.797654e-20)
(0.83211246 0.020852092 1.4623688e-20)
(0.89010037 0.028419715 -3.6733393e-20)
(0.94296917 0.035569683 -1.3777195e-20)
(0.9904323 0.042140896 7.0974774e-20)
(1.032356 0.047715319 2.9641956e-20)
(1.0669348 0.049139698 -8.3478286e-20)
(0.010858427 -0.0040424158 3.6773455e-20)
(0.043953414 -0.015431077 2.5047347e-21)
(0.090515436 -0.022552282 2.2341707e-20)
(0.14711139 -0.026497357 9.8116824e-22)
(0.21134254 -0.027886296 -4.0773932e-20)
(0.28146767 -0.026795112 1.8576404e-20)
(0.3558704 -0.023382726 1.3420297e-20)
(0.43299007 -0.017921534 -5.0327701e-20)
(0.51132477 -0.010735647 5.7261856e-20)
(0.58942613 -0.0021838769 1.4256689e-20)
(0.66590916 0.0073479091 -5.4300707e-20)
(0.73948036 0.017460267 -1.8237402e-20)
(0.80897598 0.027756566 9.059156e-21)
(0.87340264 0.037859274 2.3444732e-20)
(0.93197362 0.047424045 -1.1362503e-20)
(0.98413367 0.056148974 2.787772e-20)
(1.029574 0.063789173 -2.0188241e-20)
(1.0682645 0.070204391 -7.0123551e-20)
(1.1003322 0.075119377 -2.3796237e-20)
(1.1249112 0.076641237 4.8659693e-20)
(0.017957214 -0.0064221633 2.4508013e-20)
(0.064776996 -0.020694799 5.1039223e-20)
(0.12485228 -0.028060846 1.9881694e-20)
(0.19446966 -0.030464065 1.2990098e-20)
(0.27094931 -0.02909484 1.7275704e-20)
(0.35224879 -0.024388977 -4.7720172e-20)
(0.43643139 -0.016825971 -2.5646856e-20)
(0.52162008 -0.0069766685 0)
(0.60602895 0.0045670339 1.392062e-20)
(0.68798707 0.017211733 -5.8523411e-21)
(0.76597518 0.030373923 -9.7934939e-20)
(0.83867447 0.043499633 -1.5774815e-20)
(0.90501526 0.056086617 6.5103191e-20)
(0.9642157 0.067704135 4.8442383e-22)
(1.0158035 0.078007715 -1.5725561e-21)
(1.0596155 0.086746792 2.1957487e-20)
(1.0957773 0.093772227 -5.2647203e-21)
(1.12468 0.099065333 -6.1029694e-20)
(1.1468647 0.10259708 -4.5851147e-20)
(1.1622957 0.10341385 6.952037e-20)
(0.02657942 -0.0082056881 -3.9194197e-21)
(0.08934402 -0.024033506 -5.1256298e-21)
(0.16430754 -0.030264987 5.6599409e-20)
(0.2475812 -0.029810018 1.8539326e-20)
(0.33624161 -0.024513026 -3.1955068e-20)
(0.42795126 -0.015239858 1.2163839e-20)
(0.52047262 -0.0028513611 2.6402862e-21)
(0.61166358 0.011737097 3.360917e-20)
(0.69954712 0.027640143 5.6599504e-21)
(0.78236838 0.04402877 -1.320474e-20)
(0.85865406 0.060147725 6.0154036e-20)
(0.92726911 0.075340472 -5.8009352e-20)
(0.98745676 0.089072862 -1.3216612e-19)
(1.0388531 0.10094902 -5.5773028e-21)
(1.0814725 0.11071709 8.3150755e-20)
(1.1156655 0.11826405 0)
(1.1420548 0.12360583 1.0118949e-20)
(1.1614669 0.12689056 -1.5459768e-20)
(1.1748179 0.1282987 -8.5994527e-21)
(1.1826673 0.12744916 2.0992228e-20)
(0.036666909 -0.0090895796 -5.4309118e-21)
(0.11731511 -0.024685357 4.3578746e-21)
(0.20811868 -0.028140177 -8.762984e-21)
(0.30515702 -0.023414953 2.8472394e-20)
(0.40533539 -0.01307559 -2.9392665e-20)
(0.50607147 0.0015226167 -1.6927023e-20)
(0.6049049 0.019095142 3.7364231e-20)
(0.69954959 0.038365256 4.7595449e-21)
(0.78800392 0.058167647 -2.4436058e-20)
(0.86863406 0.077483006 6.9867557e-20)
(0.94023973 0.095458644 5.2393775e-22)
(1.0020956 0.11143157 -8.0444314e-20)
(1.0539569 0.12494291 0)
(1.0960273 0.1357375 3.9542117e-20)
(1.1288922 0.14374843 5.5236012e-21)
(1.1534278 0.14906893 -7.7566396e-20)
(1.1706991 0.15191914 -1.9586917e-20)
(1.1818623 0.15262368 -1.2467635e-20)
(1.1880592 0.15152606 -1.4709398e-20)
(1.190146 0.14858493 4.0420557e-20)
(0.048058869 -0.0087674051 -1.7277958e-20)
(0.1480831 -0.021931993 -2.2198285e-21)
(0.2551407 -0.020797834 3.0380503e-20)
(0.36546384 -0.010412792 3.7484308e-20)
(0.47590421 0.0059015895 -1.9944733e-20)
(0.58374266 0.026269308 -6.9163032e-20)
(0.68644186 0.048977211 -2.7995797e-20)
(0.78176204 0.07241779 7.892921e-20)
(0.86790196 0.09521248 8.5778137e-21)
(0.94358916 0.11624961 -2.4873482e-20)
(1.0081258 0.13469827 1.3642212e-20)
(1.061387 0.15001555 -4.3194494e-21)
(1.1037693 0.16193659 0)
(1.1360975 0.17044428 2.7203482e-20)
(1.1595046 0.17572309 -7.9322413e-20)
(1.175302 0.17810369 -3.1475527e-20)
(1.184857 0.17800813 8.1054573e-20)
(1.1894921 0.17590945 -4.2969808e-21)
(1.1904029 0.17225559 3.5561077e-21)
(1.188508 0.16719298 2.71116e-20)
(0.060485251 -0.006957364 -3.2414615e-20)
(0.18077773 -0.015170381 -8.162432e-20)
(0.30388929 -0.0075835264 2.5797751e-21)
(0.42642556 0.0097033571 7.0161811e-20)
(0.54535149 0.032631554 6.2424376e-20)
(0.65798101 0.058820044 -7.1574522e-20)
(0.76190883 0.086176508 -2.8275148e-22)
(0.85518292 0.11285231 8.5522547e-20)
(0.93645347 0.13737837 4.8828069e-20)
(1.0050415 0.1586937 -5.4218407e-20)
(1.0609356 0.17613563 -9.2334215e-20)
(1.1047243 0.18941354 -3.1589826e-21)
(1.1374759 0.19855944 4.2127866e-20)
(1.1605873 0.20385857 -6.6056277e-21)
(1.1756247 0.2057702 -1.2868786e-20)
(1.1841776 0.20484919 1.9690807e-20)
(1.1877427 0.20167897 4.3880617e-20)
(1.1876453 0.19682588 -4.3859432e-20)
(1.1849954 0.19077884 -1.0232202e-19)
(1.180625 0.1837738 2.4566893e-20)
(0.073537216 -0.0034329735 -3.497975e-20)
(0.21422687 -0.0039890255 -1.7388612e-19)
(0.35251657 0.011839376 8.2103241e-20)
(0.48562798 0.037018337 9.2767516e-20)
(0.6108538 0.066835552 5.7970568e-20)
(0.72576727 0.098481178 8.6107095e-21)
(0.82834803 0.12959696 -1.0624009e-19)
(0.91718998 0.15824269 0)
(0.99162744 0.18302814 -6.8748587e-20)
(1.0517521 0.20311206 -1.5202409e-20)
(1.0983384 0.2181486 5.4703465e-20)
(1.1327008 0.22821082 1.0973379e-20)
(1.156511 0.2336926 -4.5613853e-20)
(1.1716068 0.23519947 -4.908136e-20)
(1.1798204 0.23344335 2.428768e-20)
(1.182845 0.22915323 4.482289e-20)
(1.1821488 0.22300986 -5.5600406e-20)
(1.178936 0.21560822 -1.0751121e-19)
(1.1741468 0.20742224 -3.1513613e-21)
(1.1684567 0.19871881 2.7046397e-20)
(0.086650447 0.001961386 -3.544899e-21)
(0.24696019 0.011816634 8.7913241e-20)
(0.3988474 0.03749231 -1.6479247e-20)
(0.54040465 0.071218382 -8.4309148e-20)
(0.66949903 0.10778893 4.5164371e-20)
(0.78421953 0.14411543 4.9175455e-20)
(0.8831894 0.17775668 5.5356782e-21)
(0.9657787 0.2068849 -9.950249e-20)
(1.0321763 0.23038802 -2.504878e-21)
(1.0833328 0.24781553 5.0503542e-20)
(1.120807 0.25926301 5.9854754e-21)
(1.1465558 0.2652362 -1.9717208e-20)
(1.1627107 0.26650533 -7.5704627e-20)
(1.1713765 0.26396622 -6.2554015e-21)
(1.1744762 0.2585243 4.3533352e-20)
(1.1736548 0.25101089 3.702201e-20)
(1.1702383 0.24213395 1.9793439e-20)
(1.1652402 0.23245875 -5.2994838e-20)
(1.1594014 0.22240418 1.2957449e-20)
(1.1532252 0.212238 8.2659087e-20)
(-0.0012932615 0.0014346598 -1.1234452e-21)
(-0.0047459603 0.0031874148 2.0646968e-21)
(-0.010771359 0.0041359041 8.794986e-22)
(-0.017754287 0.004539536 -2.4411023e-21)
(-0.024740317 0.0045654166 -1.4114819e-21)
(-0.031299592 0.0043260385 1.5460012e-21)
(-0.037161326 0.0039035381 -6.8700795e-21)
(-0.042147441 0.0033577217 -5.9573038e-21)
(-0.046157775 0.0027313812 1.1171996e-20)
(-0.049146189 0.0020548306 -9.7427477e-21)
(-0.051100653 0.0013493004 -1.9833044e-22)
(-0.052030443 0.00062942192 3.6673436e-21)
(-0.051957736 -9.4889478e-05 -6.3295587e-22)
(-0.050911881 -0.00081693038 2.2818742e-20)
(-0.048925778 -0.0015318447 3.0401109e-22)
(-0.046035341 -0.002235174 -4.0882869e-20)
(-0.042281798 -0.002922268 7.5385612e-21)
(-0.037703443 -0.0035910385 2.3864109e-20)
(-0.032308696 -0.0042399865 -4.3852373e-20)
(-0.026156966 -0.004821113 -2.7739204e-20)
(-0.0016521999 0.0041808662 -5.3716023e-21)
(-0.005397481 0.0092681381 1.0865439e-20)
(-0.011218509 0.012007444 -1.0191542e-20)
(-0.017658025 0.013153764 3.9229729e-21)
(-0.023856432 0.013195413 4.8121427e-21)
(-0.029433317 0.012462724 7.132417e-22)
(-0.034152319 0.011197014 -2.2509486e-20)
(-0.037860377 0.0095738967 -2.0370237e-21)
(-0.040474297 0.0077189871 2.0163538e-20)
(-0.041958921 0.0057212304 -5.0473594e-21)
(-0.042308949 0.0036428645 -2.1762587e-20)
(-0.041537336 0.0015267128 4.8973164e-21)
(-0.039667712 -0.00059830528 2.2635419e-20)
(-0.036729082 -0.0027127607 1.030839e-20)
(-0.032752035 -0.0048026888 2.1854283e-20)
(-0.027769172 -0.006855508 -1.9770727e-20)
(-0.021824798 -0.0088582191 -2.1672942e-20)
(-0.014966274 -0.010804224 2.1184616e-20)
(-0.0071290225 -0.012679 2.6810364e-20)
(0.0018742887 -0.014317222 1.5854765e-20)
(-0.0023034292 0.0065602326 -4.3568686e-21)
(-0.0065392237 0.014480195 -5.6387547e-21)
(-0.011892131 0.018710543 3.072395e-22)
(-0.017211099 0.02042818 1.0959883e-21)
(-0.021819141 0.020400323 6.6918395e-21)
(-0.025431041 0.019151665 1.0665167e-20)
(-0.027877231 0.017066287 -3.7227632e-21)
(-0.029053268 0.014423782 -1.8896162e-20)
(-0.028909036 0.011424352 6.5413164e-21)
(-0.02743105 0.0082099049 1.2862568e-20)
(-0.024627714 0.004879776 5.8340843e-21)
(-0.02052011 0.0015022387 1.8159103e-20)
(-0.015135988 -0.0018768631 1.7295913e-21)
(-0.0085054015 -0.0052272474 -3.3864525e-20)
(-0.00065689672 -0.0085276096 1.202017e-21)
(0.0083810118 -0.011759109 -2.2139209e-20)
(0.01855686 -0.014904095 -2.44663e-20)
(0.029802172 -0.017953751 4.5819706e-20)
(0.042304953 -0.020855115 2.5349345e-20)
(0.056738557 -0.023247764 1.2239305e-22)
(-0.0031290276 0.0083689699 -5.2833066e-21)
(-0.0078963987 0.018336513 -8.4815254e-21)
(-0.012438986 0.023587808 4.3593044e-21)
(-0.016026534 0.025609658 4.1463446e-21)
(-0.018235023 0.025382745 2.0105705e-21)
(-0.018912651 0.023589321 7.3209947e-21)
(-0.017984717 0.020730273 9.3124768e-21)
(-0.01541671 0.017170377 -1.3511354e-21)
(-0.011207049 0.013171314 -1.1481945e-20)
(-0.0053752358 0.0089189315 -2.9071874e-20)
(0.0020481077 0.0045434373 6.1892165e-23)
(0.011026503 0.00013431125 4.0697817e-20)
(0.021522217 -0.0042489505 -1.838317e-20)
(0.033497841 -0.0085675842 -1.2296086e-20)
(0.0469205 -0.012795545 5.5348958e-22)
(0.06176008 -0.016911854 3.230264e-20)
(0.077952995 -0.020901668 -1.4829542e-20)
(0.095392243 -0.024763374 -5.3339178e-20)
(0.11439842 -0.028379715 4.5765002e-20)
(0.13634535 -0.031073092 3.3013162e-20)
(-0.0039704096 0.0094657321 -6.8788995e-22)
(-0.0090916579 0.020487792 -1.2534739e-20)
(-0.012364471 0.026159086 -3.4144531e-20)
(-0.01355254 0.028143338 -5.7241614e-21)
(-0.01253324 0.027555006 -3.6222734e-21)
(-0.009316725 0.025188064 6.305103e-21)
(-0.0039456459 0.021627411 -4.6461959e-21)
(0.0035261264 0.017298959 -8.8070269e-21)
(0.013036818 0.012508752 2.1899708e-20)
(0.024521238 0.0074744429 5.0567074e-21)
(0.037915534 0.0023489044 -2.529029e-20)
(0.053157439 -0.0027627835 1.1078277e-20)
(0.07018686 -0.0077908738 0)
(0.088946572 -0.012691302 1.2089574e-20)
(0.10938543 -0.017436918 -9.7016165e-21)
(0.1314574 -0.022009895 -1.4337118e-20)
(0.15507405 -0.026408644 -1.5738958e-21)
(0.18006759 -0.030659418 -2.2181547e-21)
(0.2068534 -0.034576531 4.6147056e-20)
(0.23766357 -0.037019865 -1.0470123e-20)
(-0.0046450978 0.0097808622 -7.5356672e-21)
(-0.0096772507 0.02074788 2.4516397e-20)
(-0.01106438 0.026160977 -1.0499345e-20)
(-0.0090968328 0.027724444 -2.7469278e-20)
(-0.0039797214 0.026601694 -2.7548143e-20)
(0.0040961818 0.023648408 -1.4921567e-20)
(0.014954148 0.019496457 -6.9059664e-22)
(0.028436233 0.014604706 5.5499786e-21)
(0.044403144 0.009303447 1.9615878e-20)
(0.062730492 0.0038284161 7.3530847e-21)
(0.083304311 -0.0016547543 -7.1862207e-21)
(0.10601897 -0.0070322376 -2.0102314e-21)
(0.13077356 -0.012229096 -3.8191705e-20)
(0.15746943 -0.017199751 -1.2693643e-20)
(0.18601199 -0.021919733 1.8750604e-20)
(0.21631176 -0.026379715 -2.1021671e-20)
(0.24823222 -0.030602221 -8.9730569e-21)
(0.28151866 -0.034670605 3.0440462e-20)
(0.31660702 -0.038364816 5.0472062e-20)
(0.35665014 -0.039964096 3.3559658e-21)
(-0.0049617683 0.0093139986 1.6783302e-20)
(-0.0091662692 0.019097709 1.4467937e-20)
(-0.007859365 0.023563366 5.1145481e-20)
(-0.0018585399 0.024328943 2.3387979e-20)
(0.0082957221 0.022523783 1.8251773e-22)
(0.022221939 0.019014385 -3.9388452e-20)
(0.03959744 0.014440936 -2.4313856e-20)
(0.060147901 0.00926636 1.0465817e-20)
(0.083639112 0.0038232289 1.4401585e-20)
(0.10986669 -0.0016512983 -1.3113711e-20)
(0.13864562 -0.0069910084 -4.4038709e-20)
(0.1698017 -0.012082846 2.9618495e-20)
(0.20316404 -0.016854157 2.002055e-20)
(0.23855945 -0.021263993 -2.7551152e-20)
(0.27581229 -0.0252964 1.1650133e-20)
(0.3147481 -0.028957164 2.419761e-20)
(0.35514544 -0.032303049 8.0723933e-21)
(0.39663386 -0.035506672 -1.176421e-20)
(0.439577 -0.038392637 -1.4190296e-20)
(0.48798509 -0.038634396 5.8727616e-21)
(-0.0047307762 0.0081236732 1.1093844e-20)
(-0.0070586005 0.015671176 -2.3352717e-20)
(-0.0020293662 0.018562033 8.6200529e-21)
(0.0090325195 0.018216225 3.3587963e-20)
(0.02525636 0.01565115 5.2124331e-20)
(0.046066336 0.011695604 2.0276508e-20)
(0.070984521 0.006960953 -5.8639341e-21)
(0.099601945 0.0018829523 -1.2286284e-20)
(0.13156894 -0.0032271969 -6.2057452e-21)
(0.16657567 -0.0081496558 3.424083e-20)
(0.20433424 -0.012733318 -4.5104365e-21)
(0.24456484 -0.016879184 -1.6643297e-20)
(0.28698469 -0.020528683 -1.969357e-20)
(0.33129997 -0.023656408 -4.744373e-20)
(0.37720457 -0.026265527 2.3238699e-20)
(0.42438768 -0.028387854 -1.4095981e-20)
(0.47249972 -0.030127612 2.5993394e-20)
(0.52103616 -0.03178318 2.1040821e-20)
(0.57021393 -0.033350667 -8.5570386e-20)
(0.62470915 -0.032058828 -1.0807078e-22)
(-0.003771052 0.0063146394 2.1925053e-20)
(-0.0028657665 0.010735096 -2.6165527e-20)
(0.0071421042 0.011564137 -4.501329e-20)
(0.024450232 0.0099249903 -2.7253779e-20)
(0.047870849 0.0066523068 -2.0439868e-21)
(0.0766287 0.0024906183 1.3050096e-20)
(0.11007673 -0.0020153938 -2.833771e-21)
(0.14765205 -0.0064879021 1.8118536e-20)
(0.18886095 -0.010663501 8.8685616e-21)
(0.23325194 -0.014362418 -1.1380171e-20)
(0.28039148 -0.017468945 8.8779096e-21)
(0.32984602 -0.019916801 -2.3903263e-20)
(0.38116879 -0.021678691 8.0504745e-21)
(0.43389083 -0.022759867 1.6756387e-20)
(0.48751934 -0.023194292 -2.6395125e-21)
(0.54154714 -0.023046881 1.6618976e-21)
(0.59543544 -0.022469434 -3.1957593e-22)
(0.64851782 -0.021870091 1.9590417e-20)
(0.70082238 -0.021445048 4.0434005e-21)
(0.75745149 -0.018499065 -5.7334913e-22)
(-0.0019110144 0.0040273482 2.3692111e-20)
(0.0038694296 0.0046765207 5.7159956e-20)
(0.02031531 0.0031879652 -4.9244219e-20)
(0.045178283 0.00029442736 -9.9454144e-21)
(0.07696515 -0.0034241502 2.0256346e-20)
(0.11469622 -0.0073535838 2.1433717e-21)
(0.15753882 -0.011054954 -2.981516e-20)
(0.2047483 -0.014244136 6.984811e-21)
(0.25564949 -0.016737924 7.1097855e-21)
(0.30960472 -0.018426952 -2.6254074e-20)
(0.36598647 -0.019260092 1.2927319e-21)
(0.42415957 -0.01923186 -3.7174106e-20)
(0.483471 -0.018372194 -3.6341004e-20)
(0.54324564 -0.016738267 6.5683461e-20)
(0.60278811 -0.014407292 5.5627471e-21)
(0.66138884 -0.011475887 -1.5188792e-20)
(0.71830784 -0.0081020328 1.936396e-20)
(0.772699 -0.0045928524 -9.1888122e-22)
(0.82408834 -0.00096803396 2.0364575e-20)
(0.87621966 0.0043280841 -1.955415e-20)
(-0.018836424 -0.0050997022 5.8352035e-20)
(-0.010224664 -0.0056349254 1.5783663e-20)
(-0.00022120637 -0.006068878 -3.5139548e-20)
(0.010823211 -0.0063341074 1.679023e-20)
(0.022642447 -0.0065120445 0)
(0.035177862 -0.0066300872 0)
(0.048369634 -0.0066909703 -2.2974939e-20)
(0.062138044 -0.0067025365 -1.6502864e-20)
(0.076412681 -0.0066741708 1.9122586e-20)
(0.091134036 -0.006612662 1.8174027e-20)
(0.10624714 -0.0065232019 1.052425e-21)
(0.12170018 -0.0064103541 -1.0317632e-20)
(0.13744485 -0.0062780771 8.3268761e-21)
(0.15343595 -0.0061297182 1.823371e-20)
(0.16963072 -0.0059681408 -5.2274147e-21)
(0.18598849 -0.0057958302 -1.0174931e-20)
(0.20247051 -0.0056149575 -4.3195859e-21)
(0.21903977 -0.0054274319 -4.4257374e-21)
(0.23566083 -0.0052349453 7.3667173e-22)
(0.25229982 -0.005039008 1.2286035e-21)
(0.26892441 -0.0048409753 2.5666299e-21)
(0.28550382 -0.0046420667 6.6539436e-21)
(0.30200885 -0.0044433814 2.4894446e-22)
(0.31841197 -0.004245909 -3.4514687e-21)
(0.33468734 -0.004050537 1.5558765e-22)
(0.35081088 -0.003858057 -5.7709758e-22)
(0.36676033 -0.0036691689 1.2434357e-21)
(0.3825153 -0.0034844851 1.0522432e-21)
(0.39805726 -0.0033045341 -1.2987925e-21)
(0.41336959 -0.0031297641 -1.2218734e-22)
(0.42843756 -0.0029605469 3.5749901e-23)
(0.44324831 -0.0027971827 -3.5187561e-22)
(0.45779085 -0.0026399045 -4.0565387e-22)
(0.47205599 -0.0024888836 5.5413063e-23)
(0.48603632 -0.0023442352 -1.380902e-22)
(0.49972613 -0.0022060247 -2.2343136e-22)
(0.51312143 -0.0020742744 2.5571886e-22)
(0.52621984 -0.0019489698 2.9501922e-22)
(0.53902059 -0.0018300693 -8.2712221e-24)
(0.55152477 -0.0017175074 -1.5517365e-22)
(0.56373436 -0.001611223 3.0406534e-23)
(0.57565594 -0.0015111159 -4.0144656e-23)
(0.5872897 -0.0014172572 9.2203384e-23)
(0.59866463 -0.0013293104 2.1977167e-23)
(0.60973511 -0.0012485591 -1.1394494e-22)
(0.62069315 -0.0011717939 -6.7612458e-24)
(0.63106114 -0.0011112452 -7.2380604e-26)
(0.64234966 -0.0010339486 -3.5611639e-24)
(0.65042761 -0.0010508062 2.945369e-23)
(0.6670085 -0.00087556059 3.6050697e-22)
(0.010445867 -0.015017609 -1.2746814e-20)
(0.018179695 -0.016641011 -6.3302321e-20)
(0.027779213 -0.017915413 -3.0541936e-20)
(0.038385142 -0.018672071 3.8476008e-20)
(0.049620984 -0.019183588 1.466261e-20)
(0.061506625 -0.019529432 -1.8204925e-20)
(0.074012816 -0.019709864 4.6722004e-21)
(0.087062664 -0.019746491 2.5447185e-20)
(0.10059313 -0.01966728 9.1993272e-23)
(0.114554 -0.019491699 -7.6591237e-21)
(0.12889716 -0.019234358 -1.3021015e-20)
(0.143576 -0.01890831 -8.524529e-21)
(0.15854663 -0.018524971 1.7772332e-20)
(0.17376753 -0.018093999 8.9295434e-21)
(0.18919896 -0.017623677 -1.6522435e-20)
(0.20480273 -0.01712123 -6.0390574e-21)
(0.22054211 -0.016592994 3.2145044e-21)
(0.23638172 -0.016044568 8.3716313e-21)
(0.2522875 -0.015480929 6.983226e-21)
(0.26822669 -0.014906538 -6.9727148e-21)
(0.28416789 -0.014325411 -3.1685455e-21)
(0.30008105 -0.013741171 1.3605335e-21)
(0.3159376 -0.013157095 3.8682776e-22)
(0.33171048 -0.012576138 1.211395e-21)
(0.34737423 -0.012000955 1.836835e-22)
(0.36290506 -0.011433921 -3.2661617e-22)
(0.3782809 -0.010877138 -7.2434845e-22)
(0.39348146 -0.01033245 9.715655e-22)
(0.40848826 -0.0098014521 8.248292e-22)
(0.42328465 -0.0092854989 -1.5147344e-22)
(0.4378558 -0.0087857194 5.5306055e-22)
(0.45218871 -0.0083030283 -2.3880908e-22)
(0.46627217 -0.00783814 -3.7069876e-22)
(0.48009674 -0.0073915849 -6.0999065e-22)
(0.4936547 -0.0069637258 4.4171716e-22)
(0.50694001 -0.0065547769 -1.5477148e-23)
(0.51994828 -0.0061648226 1.6124723e-22)
(0.53267676 -0.005793838 -4.417474e-22)
(0.54512421 -0.0054417164 3.7189494e-22)
(0.55729129 -0.0051082794 6.7175208e-23)
(0.56917949 -0.0047933622 -1.0285391e-22)
(0.58079489 -0.004496681 1.7613686e-22)
(0.59213724 -0.0042184648 2.3339637e-22)
(0.60323479 -0.0039577236 1.6926471e-22)
(0.6140421 -0.0037183032 1.6767191e-22)
(0.6247483 -0.0034906481 -2.6097973e-23)
(0.63488217 -0.0033112075 8.404396e-23)
(0.64593135 -0.0030818653 7.6291873e-23)
(0.65382977 -0.003132354 -1.94665e-22)
(0.67009167 -0.0026124378 -3.8026581e-23)
(0.067614681 -0.024029144 9.4528285e-21)
(0.073589662 -0.026749047 3.2950989e-21)
(0.082265497 -0.028805566 -1.2162198e-20)
(0.091947809 -0.029968501 -1.2257892e-21)
(0.1019832 -0.030767861 1.4970585e-20)
(0.11254632 -0.031330888 -1.488712e-20)
(0.12367595 -0.031636067 -2.9842265e-20)
(0.1352968 -0.031713002 1.4493519e-20)
(0.14735694 -0.031607632 1.8181963e-20)
(0.15982341 -0.031350051 -1.1598514e-20)
(0.17266057 -0.030961815 1.019055e-21)
(0.1858308 -0.030462749 8.6860139e-21)
(0.19929782 -0.029870547 -1.5253538e-20)
(0.21302655 -0.029200234 2.9095139e-21)
(0.22698241 -0.028464755 7.5194341e-21)
(0.24113138 -0.027675499 3.1598431e-23)
(0.25544013 -0.026842553 2.6556423e-22)
(0.26987604 -0.025974891 -7.4150842e-21)
(0.28440729 -0.025080559 3.8616815e-21)
(0.29900297 -0.024166814 8.4749029e-21)
(0.31363312 -0.023240228 -3.8351752e-21)
(0.3282689 -0.022306768 -2.2130361e-21)
(0.34288269 -0.02137185 1.0124438e-21)
(0.35744818 -0.020440381 -1.715532e-21)
(0.37194047 -0.019516788 1.3532252e-21)
(0.38633617 -0.018605041 7.1845905e-22)
(0.40061348 -0.017708669 1.5268382e-21)
(0.41475221 -0.016830778 -1.952661e-21)
(0.42873389 -0.015974063 2.2235673e-21)
(0.44254175 -0.015140828 5.5188514e-22)
(0.45616072 -0.014333 4.0322538e-22)
(0.46957747 -0.013552154 3.2134461e-22)
(0.48278038 -0.012799534 8.7324958e-22)
(0.4957595 -0.012076079 -1.3708598e-21)
(0.50850652 -0.01138245 3.7065541e-22)
(0.52101475 -0.010719061 1.0941273e-22)
(0.53327908 -0.01008611 -4.5172206e-23)
(0.545296 -0.009483614 8.6732749e-23)
(0.55706344 -0.0089114525 -3.7184937e-22)
(0.56858122 -0.0083693855 1.8293483e-22)
(0.57984996 -0.0078571939 -3.4987105e-23)
(0.59087477 -0.0073744593 3.9004162e-22)
(0.60165461 -0.0069216111 -1.8544419e-22)
(0.61221633 -0.0064970608 4.7323434e-23)
(0.62251483 -0.006107197 4.3603553e-23)
(0.63273382 -0.0057363325 -7.3599419e-23)
(0.64241422 -0.0054444073 -1.2082484e-22)
(0.65299974 -0.005070501 3.8809172e-22)
(0.66054978 -0.0051542465 1.7270545e-22)
(0.67619341 -0.0043070139 -8.3039763e-22)
(0.15021527 -0.031460426 1.5010131e-21)
(0.15354688 -0.035257391 -1.156661e-20)
(0.16061621 -0.038010916 6.6441984e-21)
(0.16880589 -0.039479094 -1.332474e-20)
(0.17698223 -0.040520685 -1.9758305e-21)
(0.18552344 -0.041302275 9.159938e-21)
(0.19458418 -0.041757232 -9.7662152e-21)
(0.2040869 -0.041913705 1.5662773e-21)
(0.21398766 -0.041833325 1.2903797e-20)
(0.22427597 -0.04155433 3.4031991e-21)
(0.23493252 -0.041102039 -6.2096948e-21)
(0.24593019 -0.040500443 -2.863809e-21)
(0.25724157 -0.039771743 -5.8409055e-21)
(0.2688391 -0.03893505 -6.4553126e-21)
(0.28069421 -0.03800697 3.2356921e-21)
(0.29277761 -0.037002297 8.4621074e-22)
(0.30505972 -0.03593432 1.3679576e-21)
(0.31751097 -0.034815017 -3.3850413e-21)
(0.33010193 -0.033655244 -4.2428847e-21)
(0.3428036 -0.03246489 2.3616502e-21)
(0.35558754 -0.031252991 3.2251346e-21)
(0.3684261 -0.03002781 -1.5636188e-21)
(0.38129257 -0.028796896 1.5867263e-21)
(0.3941613 -0.027567127 -3.9123966e-22)
(0.40700788 -0.026344738 -3.9196393e-21)
(0.41980921 -0.025135347 -3.0332808e-21)
(0.4325436 -0.023943971 -1.9026267e-22)
(0.44519087 -0.022775044 4.2858935e-22)
(0.45773235 -0.021632436 -2.2106028e-21)
(0.47015097 -0.020519472 -8.5497121e-22)
(0.48243126 -0.019438961 2.283765e-22)
(0.49455933 -0.018393216 -1.2498678e-21)
(0.50652292 -0.017384093 6.2630842e-24)
(0.51831132 -0.016413022 -4.2420855e-22)
(0.52991539 -0.015481044 -4.7193599e-22)
(0.54132751 -0.014588856 -5.1995649e-22)
(0.55254158 -0.013736853 -8.4133047e-22)
(0.56355302 -0.012925175 -5.4496314e-23)
(0.57435866 -0.01215377 -3.9160426e-24)
(0.58495714 -0.011422414 -5.1972299e-22)
(0.5953479 -0.010730911 -9.1607059e-23)
(0.60553476 -0.010078784 -3.3239346e-22)
(0.61551558 -0.0094667253 -4.37599e-22)
(0.62531533 -0.0088926374 3.784171e-22)
(0.6348894 -0.0083654049 1.482097e-23)
(0.64441385 -0.007863582 1.8237583e-22)
(0.65344711 -0.0074693408 -1.3246696e-22)
(0.6633697 -0.0069629523 -2.6691068e-22)
(0.67042178 -0.0070791526 -4.4691981e-23)
(0.68517869 -0.0059326877 4.6229523e-22)
(0.25468563 -0.03655275 -2.0900308e-20)
(0.25447017 -0.0413935 4.7585955e-20)
(0.25907329 -0.044745648 1.0348098e-20)
(0.26508408 -0.046442033 -1.5765316e-20)
(0.27070928 -0.047714304 -2.0227942e-21)
(0.2765199 -0.048747764 2.6232239e-21)
(0.28283544 -0.049413706 -1.6608203e-21)
(0.28957685 -0.049728087 -4.6861409e-21)
(0.29669651 -0.049761418 -4.0159158e-21)
(0.3042054 -0.049557039 -1.2207636e-20)
(0.31210211 -0.049141674 1.7897752e-20)
(0.3203693 -0.048540789 6.5219888e-21)
(0.32898692 -0.047778952 -1.6780522e-20)
(0.33793394 -0.046878005 1.0317572e-20)
(0.34718699 -0.045857287 8.3849902e-21)
(0.35672065 -0.0447343 -8.7923724e-22)
(0.36650835 -0.043525054 -3.1222232e-21)
(0.37652279 -0.042244234 -3.8197301e-21)
(0.38673631 -0.040905346 -1.3892572e-21)
(0.3971212 -0.039520839 -1.2304186e-21)
(0.40764998 -0.038102208 -3.0257593e-21)
(0.41829568 -0.036660056 0)
(0.42903202 -0.035204141 -1.3451906e-21)
(0.43983361 -0.033743409 3.9309499e-21)
(0.45067612 -0.032286014 5.4052645e-21)
(0.46153637 -0.030839341 -9.4112542e-22)
(0.47239246 -0.029410014 -2.927442e-21)
(0.48322386 -0.028003922 3.0258364e-21)
(0.49401146 -0.026626231 2.5447494e-22)
(0.50473759 -0.025281413 3.4352431e-21)
(0.5153861 -0.023973276 -5.3459729e-22)
(0.52594233 -0.022704994 1.7173457e-21)
(0.5363931 -0.021479149 -7.9964301e-22)
(0.54672675 -0.020297777 2.9094088e-22)
(0.55693306 -0.019162414 -4.3403883e-22)
(0.56700328 -0.01807415 5.6231586e-22)
(0.57693011 -0.017033684 4.5709812e-22)
(0.5867077 -0.016041387 3.8255534e-22)
(0.59633155 -0.015097373 -9.5936055e-22)
(0.60579896 -0.014201539 6.8355318e-22)
(0.61510795 -0.013353807 -3.6957298e-22)
(0.62426087 -0.012553735 -1.1033164e-21)
(0.6332543 -0.011802355 1.4078139e-21)
(0.64211096 -0.011097174 -6.2005688e-23)
(0.65078702 -0.010449497 -1.5815946e-22)
(0.65944897 -0.0098326224 -7.8244361e-24)
(0.66767748 -0.0093492378 -1.2621539e-22)
(0.67677332 -0.0087261974 -4.6582319e-22)
(0.68320517 -0.0088736362 8.7882864e-22)
(0.69685061 -0.0074648931 -4.4315637e-23)
(0.37635126 -0.038368156 -1.7495097e-20)
(0.37170973 -0.044270218 1.283205e-20)
(0.37286686 -0.048161601 2.9754554e-21)
(0.37591041 -0.050098838 -7.6353706e-21)
(0.37830522 -0.051669958 1.2055978e-20)
(0.38072289 -0.053042359 7.7914094e-21)
(0.38367596 -0.054030025 -1.2647686e-20)
(0.38710053 -0.054633088 -6.0679756e-21)
(0.39092918 -0.054917988 1.2697338e-20)
(0.39518238 -0.054927117 -1.5304972e-20)
(0.39987419 -0.054687498 -1.406319e-20)
(0.40499501 -0.054224635 1.4129632e-20)
(0.41052856 -0.053563642 6.8193829e-21)
(0.41645711 -0.052727931 -4.2037671e-21)
(0.42276008 -0.051738998 -1.8545605e-21)
(0.42941397 -0.050616731 -4.0581717e-21)
(0.43639341 -0.049379683 5.3047601e-21)
(0.44367188 -0.048045208 3.6682086e-21)
(0.45122217 -0.046629529 -3.2408294e-21)
(0.45901671 -0.045147796 3.1379485e-21)
(0.46702799 -0.043614139 2.7666796e-21)
(0.47522882 -0.042041707 -3.2111126e-21)
(0.48359259 -0.040442682 3.7056559e-22)
(0.49209346 -0.038828297 -3.2571641e-21)
(0.50070654 -0.037208845 7.2454126e-21)
(0.50940804 -0.035593686 6.1080584e-21)
(0.51817534 -0.03399126 8.0973142e-22)
(0.52698713 -0.032409102 -1.7683228e-21)
(0.53582344 -0.030853862 3.702176e-21)
(0.54466569 -0.029331336 7.1885173e-21)
(0.55349674 -0.027846496 2.3049304e-21)
(0.56230085 -0.026403536 3.3164855e-21)
(0.57106373 -0.025005918 1.9956203e-21)
(0.57977252 -0.023656427 7.4557911e-22)
(0.58841579 -0.022357232 -2.6374547e-22)
(0.59698348 -0.021109948 2.7203114e-21)
(0.60546694 -0.019915706 6.1992164e-22)
(0.61385894 -0.018775225 2.948776e-22)
(0.62215358 -0.017688909 5.6232457e-23)
(0.63034666 -0.016656884 9.8966501e-22)
(0.63843478 -0.015679295 4.7020064e-23)
(0.64641867 -0.014755841 4.4247413e-22)
(0.65429363 -0.013887974 -1.262179e-22)
(0.66207989 -0.01307293 -2.7734815e-22)
(0.66973475 -0.012324334 -1.5218625e-22)
(0.67741363 -0.011610819 -4.2207872e-22)
(0.68472344 -0.01105352 1.6139296e-22)
(0.69287166 -0.010332313 -1.2723597e-22)
(0.6985945 -0.010509414 -5.0126362e-22)
(0.7109569 -0.0088817454 2.4586917e-22)
(0.50927425 -0.035974265 3.6471407e-21)
(0.49953034 -0.042960645 -1.8958302e-20)
(0.4962755 -0.047383441 -2.3083848e-21)
(0.49555586 -0.049736744 5.4869443e-21)
(0.49416946 -0.051818008 3.0528149e-21)
(0.49269566 -0.053705372 -4.9880343e-23)
(0.49181221 -0.055187609 6.1896704e-21)
(0.49151442 -0.056265357 7.6251017e-21)
(0.49171157 -0.05699049 9.8580406e-21)
(0.49241063 -0.057395529 -1.1250041e-20)
(0.49363094 -0.057506255 -2.157942e-20)
(0.49536767 -0.057348369 -3.9353475e-21)
(0.49760457 -0.056947081 1.5938142e-20)
(0.50032291 -0.056326958 1.2808957e-20)
(0.50350155 -0.05551168 -5.906695e-21)
(0.50711641 -0.054523792 1.3817055e-21)
(0.51114128 -0.053384728 -3.6600827e-21)
(0.51554863 -0.052114881 2.244374e-21)
(0.52031016 -0.050733587 -2.9123018e-22)
(0.52539722 -0.049259104 -1.8654092e-21)
(0.53078112 -0.047708598 7.8265868e-21)
(0.53643351 -0.046098146 -2.9308769e-22)
(0.54232657 -0.044442724 4.1818106e-22)
(0.54843326 -0.042756197 -6.5646647e-22)
(0.55472747 -0.041051316 -4.302937e-21)
(0.56118416 -0.039339719 4.2085147e-21)
(0.56777951 -0.037631939 1.9031214e-21)
(0.57449093 -0.035937414 -3.3081909e-21)
(0.58129719 -0.034264517 -4.1116423e-21)