/*--------------------------------*- C++ -*----------------------------------*\
  =========                 |
  \\      /  F ield         | OpenFOAM: The Open Source CFD Toolbox
   \\    /   O peration     | Website:  https://openfoam.org
    \\  /    A nd           | Version:  6
     \\/     M anipulation  |
\*---------------------------------------------------------------------------*/
FoamFile
{
    version     2.0;
    format      ascii;
    class       volScalarField;
    location    "116";
    object      pMean;
}
// * * * * * * * * * * * * * * * * * * * * * * * * * * * * * * * * * * * * * //

dimensions      [0 2 -2 0 0 0 0];

internalField   nonuniform List<scalar> 
9200
(
-0.40550922
-0.39312597
-0.38204661
-0.3722717
-0.36269931
-0.35332614
-0.34423827
-0.33539859
-0.32673361
-0.31816805
-0.30962807
-0.30104612
-0.29236806
-0.28356015
-0.27461893
-0.26558791
-0.25655172
-0.24760452
-0.23974082
-0.23712115
-0.42422802
-0.40939676
-0.39638454
-0.3850766
-0.37410164
-0.3634267
-0.35312819
-0.34313939
-0.33335706
-0.32368283
-0.31402668
-0.30431252
-0.29448552
-0.28451752
-0.27441156
-0.26420483
-0.25393953
-0.24362636
-0.23393444
-0.2269871
-0.44323392
-0.42595254
-0.41106677
-0.39830106
-0.38597682
-0.37401378
-0.36246827
-0.35123836
-0.34019158
-0.32921285
-0.31820738
-0.30710555
-0.29586898
-0.28449243
-0.2730024
-0.26145167
-0.24989139
-0.23833999
-0.2271948
-0.21756842
-0.46205791
-0.44236315
-0.42567773
-0.41151581
-0.3978561
-0.38455604
-0.37164632
-0.35899224
-0.34644294
-0.33388455
-0.32123999
-0.30847048
-0.29557729
-0.28259787
-0.26959783
-0.25665996
-0.24386004
-0.23124184
-0.21907436
-0.20810745
-0.4800338
-0.45804582
-0.43968387
-0.42420071
-0.40920776
-0.39449162
-0.38006033
-0.36576037
-0.35144577
-0.33703265
-0.32249172
-0.30784232
-0.29314626
-0.27849645
-0.2640025
-0.24977634
-0.23591213
-0.22246774
-0.20963249
-0.19792526
-0.49630306
-0.47224677
-0.4523884
-0.43567009
-0.41933023
-0.40308791
-0.38694452
-0.37075647
-0.35441868
-0.33791394
-0.32129232
-0.30465345
-0.28813025
-0.27187008
-0.25601644
-0.24069476
-0.22599804
-0.21197654
-0.19875529
-0.18668059
-0.50983106
-0.48404873
-0.46293415
-0.44507754
-0.42736588
-0.40947025
-0.39141665
-0.37311445
-0.35454442
-0.33579403
-0.31701824
-0.29840735
-0.28016134
-0.26246668
-0.245479
-0.22931369
-0.21403979
-0.19967927
-0.18629567
-0.17409557
-0.51943103
-0.49239674
-0.47033887
-0.45146604
-0.43236845
-0.41270668
-0.3925768
-0.37199433
-0.35107327
-0.33003798
-0.3091621
-0.28872285
-0.26897002
-0.25010454
-0.23226802
-0.21554258
-0.19995514
-0.18548645
-0.17214006
-0.1600038
-0.523744
-0.49599358
-0.47329177
-0.45347649
-0.43294469
-0.41141157
-0.3891043
-0.36620042
-0.34298334
-0.3198257
-0.29710932
-0.27517297
-0.25428416
-0.23462703
-0.2163039
-0.19934651
-0.18373046
-0.16939246
-0.15628042
-0.14437992
-0.52141447
-0.49340892
-0.47022856
-0.44942998
-0.42736806
-0.40389734
-0.37943965
-0.35437597
-0.32916746
-0.3043132
-0.2802626
-0.25736911
-0.23587556
-0.21591787
-0.19754061
-0.18071848
-0.16537772
-0.1514177
-0.13873811
-0.12723492
-0.28371583
-0.28793094
-0.289724
-0.28984289
-0.28895902
-0.2872327
-0.28476563
-0.28165663
-0.27798226
-0.2738015
-0.26916309
-0.26410899
-0.25867659
-0.25290019
-0.24681228
-0.24044608
-0.23383703
-0.2270101
-0.21996795
-0.21280435
-0.28674235
-0.29050745
-0.29197622
-0.29186962
-0.29079978
-0.28891838
-0.28632489
-0.28311351
-0.27935661
-0.2751099
-0.27041935
-0.26532452
-0.25986062
-0.2540597
-0.24795139
-0.2415676
-0.23495111
-0.22812517
-0.22098189
-0.2134941
-0.2926324
-0.29552264
-0.29636237
-0.29581505
-0.29438112
-0.29219652
-0.28935626
-0.2859456
-0.2820288
-0.27765514
-0.27286501
-0.26769311
-0.26217032
-0.25632439
-0.25017963
-0.24376454
-0.23713284
-0.23030701
-0.22298327
-0.21488713
-0.30109939
-0.30274504
-0.30267844
-0.3014835
-0.29950795
-0.29686765
-0.29365218
-0.2899348
-0.28576859
-0.28119374
-0.27624277
-0.27094334
-0.26532003
-0.25939427
-0.25318306
-0.24670901
-0.24003671
-0.23319401
-0.2256323
-0.21669208
-0.31178305
-0.31188437
-0.31067062
-0.30863459
-0.30594385
-0.30269331
-0.29896761
-0.2948264
-0.29030961
-0.28544677
-0.28026077
-0.27476993
-0.2689904
-0.26293594
-0.25661495
-0.25004116
-0.24328582
-0.2363906
-0.22855702
-0.21860442
-0.32431057
-0.32263988
-0.32007818
-0.31702571
-0.31345543
-0.30944323
-0.30507108
-0.30038532
-0.29541205
-0.29016758
-0.28466269
-0.27890526
-0.27290166
-0.26665652
-0.26016879
-0.25344071
-0.24654248
-0.23953524
-0.23140478
-0.22034389
-0.33835097
-0.33474294
-0.33067167
-0.32645087
-0.32185358
-0.31694071
-0.31179554
-0.30645077
-0.30091612
-0.29519408
-0.28928263
-0.28317724
-0.27687288
-0.27036414
-0.26364078
-0.25669373
-0.24958579
-0.24240056
-0.23397346
-0.22181995
-0.35364651
-0.3479826
-0.34227752
-0.33676752
-0.33102523
-0.32510003
-0.31907691
-0.31297464
-0.30678682
-0.30050026
-0.29409746
-0.28755879
-0.28086505
-0.27399856
-0.26693974
-0.25967153
-0.25225501
-0.24481981
-0.23616839
-0.22314892
-0.37001096
-0.36219517
-0.35475546
-0.34786036
-0.34087788
-0.33384506
-0.32685085
-0.31989988
-0.31296718
-0.30602115
-0.2990258
-0.29194284
-0.28473425
-0.27736275
-0.26978745
-0.2619657
-0.2539254
-0.24577967
-0.23633439
-0.22217198
-0.38731941
-0.37724394
-0.36796162
-0.3595781
-0.35124602
-0.3429901
-0.33490339
-0.32697466
-0.31915866
-0.31140459
-0.30365864
-0.29586675
-0.28797774
-0.27994361
-0.27171436
-0.26323366
-0.2544533
-0.24518185
-0.23383784
-0.21749151
-0.20470382
-0.19467501
-0.1847026
-0.17487189
-0.16512224
-0.15549327
-0.14604316
-0.13680906
-0.12781933
-0.11910115
-0.11067876
-0.102572
-0.094796833
-0.087365933
-0.080288798
-0.073571847
-0.067218611
-0.061229935
-0.055604158
-0.050337297
-0.045423248
-0.040853982
-0.036619767
-0.032709381
-0.029110332
-0.025809085
-0.022791281
-0.020041949
-0.017545718
-0.015287007
-0.013250212
-0.011419869
-0.0097808132
-0.0083183099
-0.0070181837
-0.0058669278
-0.0048518134
-0.0039609709
-0.0031835648
-0.0025096742
-0.0019312367
-0.0014396886
-0.0010344531
-0.00069796574
-0.00047473929
-0.00023681564
-0.00039039747
0.00018820057
-0.001887976
0.0029711778
-0.20613847
-0.19565826
-0.18554807
-0.17571652
-0.16592814
-0.15624593
-0.14675027
-0.13747427
-0.12844299
-0.11968437
-0.11122315
-0.10307904
-0.09526794
-0.087802599
-0.080692564
-0.073944284
-0.067561315
-0.061544519
-0.055892242
-0.050600495
-0.045663155
-0.041072168
-0.036817761
-0.032888666
-0.029272338
-0.025955184
-0.022922778
-0.020160084
-0.017651659
-0.015381852
-0.013334985
-0.011495526
-0.0098482356
-0.0083783121
-0.0070715124
-0.0059142646
-0.0048937777
-0.0039981223
-0.0032164059
-0.0025386527
-0.0019567466
-0.0014620728
-0.0010539882
-0.00071491053
-0.00048909008
-0.0002491032
-0.00039861598
0.00017869161
-0.0018771677
0.0029415233
-0.20903223
-0.19760676
-0.18722909
-0.17744183
-0.16759445
-0.15781039
-0.14822896
-0.13887321
-0.12976003
-0.12091989
-0.11237932
-0.10415792
-0.096271694
-0.088733744
-0.081553909
-0.074738825
-0.068292202
-0.062215026
-0.056505721
-0.051160337
-0.046172752
-0.041534882
-0.037236896
-0.033267442
-0.029613871
-0.026262467
-0.023198671
-0.0204073
-0.01787276
-0.015579242
-0.01351091
-0.011652069
-0.009987325
-0.0085017202
-0.0071808616
-0.0060110323
-0.0049793025
-0.0040736102
-0.0032829367
-0.0025971849
-0.0020081227
-0.0015070219
-0.0010931043
-0.00074873129
-0.000517659
-0.00027344239
-0.00041487421
0.00016004824
-0.0018556687
0.0028827677
-0.21307429
-0.20016591
-0.18941006
-0.1797973
-0.169922
-0.16001263
-0.15033067
-0.14088203
-0.13166624
-0.12271931
-0.11407236
-0.1057453
-0.097754475
-0.090113935
-0.082834318
-0.075922806
-0.069383554
-0.06321791
-0.057424569
-0.051999765
-0.046937481
-0.042229674
-0.037866496
-0.033836528
-0.030127009
-0.02672408
-0.023613007
-0.020778413
-0.018204489
-0.015875204
-0.01377449
-0.011886419
-0.010195361
-0.0086861282
-0.0073441011
-0.0061553437
-0.0051067157
-0.0041859533
-0.0033818457
-0.0026841111
-0.0020843401
-0.0015736318
-0.0011510047
-0.00079872976
-0.00055983192
-0.00030930397
-0.00043873078
0.00013269096
-0.0018236777
0.0027961045
-0.21787354
-0.20294125
-0.19171289
-0.18247947
-0.17266837
-0.1626404
-0.15286959
-0.14334381
-0.13402949
-0.12497
-0.11620604
-0.10775925
-0.099646637
-0.091883942
-0.084483405
-0.077453375
-0.070798917
-0.064522142
-0.058622347
-0.053096216
-0.047938054
-0.043140019
-0.038692366
-0.034583691
-0.030801178
-0.027330849
-0.024157799
-0.021266441
-0.018640727
-0.016264356
-0.014120981
-0.012194381
-0.010468629
-0.0089282418
-0.0075583061
-0.006344601
-0.0052737098
-0.0043331028
-0.0035113152
-0.0027978201
-0.0021839732
-0.0016606433
-0.0012265787
-0.00086393024
-0.00061475483
-0.00035594275
-0.00046959612
9.7260314e-05
-0.0017816462
0.0026834172
-0.22294403
-0.20555446
-0.19378446
-0.18516683
-0.17557709
-0.16547618
-0.15564715
-0.1460838
-0.13670206
-0.12754659
-0.1186727
-0.11010746
-0.10186946
-0.093976695
-0.086443979
-0.07928174
-0.07249665
-0.066092144
-0.060068607
-0.054423584
-0.049152028
-0.044246568
-0.039697772
-0.035494413
-0.031623738
-0.02807173
-0.024823367
-0.021862876
-0.019173967
-0.016740063
-0.014544504
-0.012570737
-0.010802492
-0.009223936
-0.0078198067
-0.0065755389
-0.0054773808
-0.0045124781
-0.0036690545
-0.0029362815
-0.0023052251
-0.0017664697
-0.0013184286
-0.00094310727
-0.00068135888
-0.00041243033
-0.00050674717
5.4545596e-05
-0.0017301949
0.0025471517
-0.22780236
-0.2077678
-0.19536925
-0.18752982
-0.17839042
-0.16833932
-0.15849998
-0.14894503
-0.13954612
-0.1303324
-0.12137177
-0.11270223
-0.10434664
-0.096325942
-0.08865839
-0.081357592
-0.074432761
-0.067889377
-0.061729521
-0.055952116
-0.05055319
-0.045526188
-0.04086227
-0.036550604
-0.032578663
-0.028932515
-0.025597104
-0.022556525
-0.019794276
-0.017293504
-0.015037229
-0.013008541
-0.011190792
-0.0095677568
-0.0081237769
-0.0068438929
-0.0057139656
-0.0047207641
-0.0038521485
-0.0030969377
-0.0024458569
-0.0018891573
-0.0014248545
-0.0010347915
-0.00075838125
-0.00047769479
-0.0005493641
5.397389e-06
-0.0016700575
0.0023901555
-0.23213788
-0.20993847
-0.19667944
-0.18937911
-0.18088184
-0.17112048
-0.16136057
-0.15184759
-0.14247554
-0.13324727
-0.12422996
-0.11547506
-0.1070142
-0.098872667
-0.091072648
-0.083631781
-0.076562708
-0.06987366
-0.063568989
-0.057649482
-0.052112668
-0.046953158
-0.042162988
-0.037731954
-0.033647942
-0.029897247
-0.026464885
-0.023334893
-0.020490605
-0.017914919
-0.015590538
-0.01350019
-0.011626828
-0.0099538038
-0.0084650293
-0.0071451098
-0.005979476
-0.0049544751
-0.0040575591
-0.0032771479
-0.002603581
-0.0020267322
-0.0015441595
-0.0011375363
-0.00084459535
-0.00055071494
-0.00059668777
-4.941115e-05
-0.001602094
0.0022156164
-0.23361713
-0.2122138
-0.19832482
-0.19062815
-0.1826172
-0.1734368
-0.16395109
-0.15455752
-0.14527569
-0.13610263
-0.12708944
-0.11829608
-0.10976624
-0.10153199
-0.09362025
-0.086053438
-0.078848614
-0.072017733
-0.065568265
-0.059503633
-0.053823552
-0.048524401
-0.043599614
-0.039040055
-0.034834387
-0.03096943
-0.027430509
-0.024201783
-0.02126656
-0.018607584
-0.016207304
-0.014048118
-0.01211259
-0.010383645
-0.0088447405
-0.0074800168
-0.006274435
-0.0052138765
-0.0042853375
-0.0034767903
-0.0027781379
-0.0021788275
-0.0016758955
-0.0012508291
-0.00093946015
-0.00063088203
-0.00064830265
-0.00010895194
-0.0015276874
0.0020277223
-0.22417881
-0.21169201
-0.19972351
-0.19070265
-0.18268274
-0.17430954
-0.16545098
-0.15643663
-0.14744498
-0.13850643
-0.12965455
-0.1209507
-0.11245231
-0.10420304
-0.09623836
-0.088588416
-0.081277452
-0.074323682
-0.067739877
-0.06153393
-0.055709296
-0.05026542
-0.045198204
-0.04050045
-0.0361623
-0.032171654
-0.028514578
-0.025175684
-0.022138492
-0.019385761
-0.016899801
-0.014662743
-0.012656794
-0.010864452
-0.0092686996
-0.0078531754
-0.0066023245
-0.0055015084
-0.0045372099
-0.0036968925
-0.0029699634
-0.00234538
-0.0018195953
-0.0013738571
-0.0010419634
-0.00071685407
-0.000703288
-0.00017077914
-0.0014490829
0.0018323122
-0.20276509
-0.20568044
-0.19924353
-0.18953105
-0.18115725
-0.17322929
-0.16484525
-0.15615787
-0.14742782
-0.13872164
-0.13006599
-0.12151848
-0.11314083
-0.10498168
-0.09708033
-0.089470455
-0.082179828
-0.075229961
-0.06863659
-0.062410261
-0.056556779
-0.051077653
-0.045970561
-0.041229829
-0.036846881
-0.032810684
-0.029108172
-0.025724655
-0.022644193
-0.019849955
-0.017324541
-0.015050274
-0.013009471
-0.011184669
-0.0095588351
-0.0081155435
-0.0068391397
-0.0057148566
-0.0047290217
-0.0038689295
-0.0031237664
-0.0024823349
-0.0019405652
-0.0014801189
-0.0011318319
-0.00079517595
-0.00075103025
-0.00023177951
-0.0013653622
0.0016382018
-0.19151884
-0.19553319
-0.19097923
-0.18162025
-0.17368448
-0.16660225
-0.15910373
-0.15120923
-0.1432041
-0.13516661
-0.12711544
-0.1191048
-0.11119936
-0.10345216
-0.095906905
-0.088601903
-0.081569784
-0.074836858
-0.068423455
-0.06234446
-0.056609736
-0.051224537
-0.046189975
-0.04150349
-0.037159311
-0.033148917
-0.029461468
-0.026084235
-0.023002993
-0.020202393
-0.017666311
-0.015378151
-0.013321139
-0.011478567
-0.0098340173
-0.0083715594
-0.0070759256
-0.0059326427
-0.0049282418
-0.004050167
-0.0032876113
-0.0026295194
-0.0020712452
-0.0015955727
-0.0012290039
-0.00088121995
-0.00080041623
-0.00030299095
-0.0012653061
0.0014266783
-0.18192465
-0.1835843
-0.18031817
-0.17276761
-0.16578653
-0.15948575
-0.15283
-0.14573646
-0.13845906
-0.1310944
-0.12366388
-0.11621624
-0.10881528
-0.10151628
-0.094365624
-0.087404645
-0.080669543
-0.07419051
-0.067991836
-0.06209233
-0.056505676
-0.051240787
-0.046302221
-0.041690625
-0.037403185
-0.033434072
-0.029774883
-0.026415067
-0.023342329
-0.020543021
-0.018002491
-0.015705419
-0.013636113
-0.011778777
-0.010117753
-0.0086377273
-0.0073239274
-0.0061622672
-0.0051395569
-0.0042434562
-0.0034632049
-0.0027879473
-0.0022124152
-0.0017206948
-0.0013344275
-0.00097483321
-0.00085348454
-0.00038104448
-0.001152833
0.0011929778
-0.17138824
-0.17075116
-0.16804435
-0.16260402
-0.15692799
-0.15145558
-0.14566409
-0.13944712
-0.1329724
-0.12634081
-0.11958868
-0.11276313
-0.10592492
-0.099130295
-0.092427922
-0.085861695
-0.079470888
-0.073289263
-0.067344916
-0.061660544
-0.056253712
-0.05113713
-0.046318998
-0.041803411
-0.037590774
-0.03367823
-0.03006009
-0.026728258
-0.023672636
-0.020881523
-0.018341978
-0.016040166
-0.013961672
-0.012091784
-0.010415753
-0.0089190177
-0.0075874127
-0.0064073349
-0.0053659528
-0.004451205
-0.0036524264
-0.0029589949
-0.0023650305
-0.0018559442
-0.0014484088
-0.0010753933
-0.00091093073
-0.00046230987
-0.0010357939
0.00094765679
-0.15999728
-0.15778932
-0.15524357
-0.15154185
-0.14721494
-0.14262653
-0.1377018
-0.13238826
-0.1267647
-0.1209142
-0.11488769
-0.10873469
-0.10251192
-0.096274626
-0.090072737
-0.083951889
-0.077953623
-0.07211464
-0.066466424
-0.061035314
-0.05584264
-0.05090491
-0.046234068
-0.041837825
-0.037720025
-0.033881038
-0.030318164
-0.02702604
-0.023997048
-0.021221703
-0.018689032
-0.016386925
-0.014302461
-0.012422211
-0.010732512
-0.0092197078
-0.007870374
-0.006671503
-0.0056107169
-0.0046763077
-0.0038577667
-0.0031447386
-0.0025307771
-0.0020025656
-0.0015719331
-0.0011832202
-0.0009736766
-0.00054538956
-0.00091995549
0.00069892189
-0.14750025
-0.14474821
-0.14245075
-0.14005204
-0.13694101
-0.13325762
-0.12918436
-0.12474998
-0.119977
-0.1149216
-0.10964089
-0.10418626
-0.098610349
-0.092965941
-0.087302836
-0.081667242
-0.07610182
-0.070645169
-0.065331355
-0.060189736
-0.05524496
-0.050517034
-0.046021479
-0.04176957
-0.037768627
-0.034022351
-0.030531188
-0.027292704
-0.02430197
-0.021551948
-0.019033858
-0.016737537
-0.014651774
-0.012764622
-0.011063685
-0.0095363767
-0.0081701615
-0.0069527547
-0.0058723405
-0.0049176529
-0.0040784181
-0.0033445851
-0.0027092217
-0.0021601846
-0.0017047707
-0.0012978746
-0.0010421011
-0.00062906637
-0.0008109903
0.00045526273
-0.13423335
-0.13177836
-0.12993837
-0.12848903
-0.12638342
-0.12356903
-0.12031428
-0.11670901
-0.11275349
-0.10847883
-0.10393985
-0.099188477
-0.094272434
-0.089240131
-0.084139884
-0.079017436
-0.073915427
-0.068873183
-0.063926309
-0.059106338
-0.05444055
-0.049951916
-0.045659146
-0.041576813
-0.037715567
-0.034082385
-0.030680877
-0.027511619
-0.024572499
-0.021859076
-0.019364942
-0.017082065
-0.015001131
-0.013111858
-0.011403293
-0.0098640866
-0.0084827388
-0.0072478221
-0.0061482021
-0.0051731524
-0.0043127246
-0.0035572174
-0.0028993206
-0.0023279331
-0.0018462949
-0.0014186643
-0.0011164134
-0.0007122105
-0.00071468996
0.00022569422
-0.12088954
-0.11912013
-0.11785247
-0.11710233
-0.1157943
-0.1137669
-0.11127501
-0.10843378
-0.10524085
-0.10171047
-0.09788896
-0.093825509
-0.089564015
-0.085147509
-0.080620315
-0.076026497
-0.071407784
-0.066803149
-0.06224862
-0.057776909
-0.053417084
-0.049194374
-0.045130099
-0.041241693
-0.03754281
-0.034043488
-0.030750385
-0.027667039
-0.024794173
-0.022130019
-0.01967064
-0.017410272
-0.015341643
-0.013456293
-0.01174487
-0.01019741
-0.0088035995
-0.0075530004
-0.0064352821
-0.005440363
-0.0045587202
-0.0037810541
-0.0030998081
-0.0025047768
-0.0019957416
-0.0015448852
-0.0011967411
-0.00079407943
-0.00063625664
1.8749795e-05
-0.10798069
-0.10694624
-0.10625776
-0.10604567
-0.10536716
-0.10402296
-0.10221912
-0.10006844
-0.097571507
-0.094733376
-0.091590153
-0.08818508
-0.084557356
-0.08074528
-0.076788498
-0.072727301
-0.068601315
-0.064448296
-0.060303715
-0.056200459
-0.052168461
-0.048234398
-0.04442151
-0.040749512
-0.037234597
-0.033889514
-0.030723706
-0.027743514
-0.024952405
-0.022351254
-0.019938625
-0.017711084
-0.015663498
-0.013789342
-0.012080993
-0.010530006
-0.0091273823
-0.0078638035
-0.0067298633
-0.0057162311
-0.0048139157
-0.0040140797
-0.0033090654
-0.0026894257
-0.002152148
-0.0016758083
-0.0012830662
-0.00087441247
-0.00057960024
-0.00015860129
-0.09577042
-0.095371349
-0.095200203
-0.095416043
-0.095237677
-0.094469269
-0.093267435
-0.091729048
-0.089856228
-0.087649137
-0.085134402
-0.082347721
-0.079322705
-0.076092416
-0.072691767
-0.069156828
-0.065523673
-0.061827743
-0.058103102
-0.054381921
-0.050694106
-0.047066945
-0.043524846
-0.040089148
-0.036778025
-0.033606474
-0.030586367
-0.027726567
-0.025033099
-0.022509358
-0.020156356
-0.017972977
-0.015956264
-0.014101692
-0.012403452
-0.010854723
-0.0094479312
-0.00817499
-0.0070275295
-0.0059970741
-0.0050752705
-0.0042538118
-0.0035250915
-0.0028803076
-0.0023143339
-0.001810662
-0.0013751785
-0.00095338438
-0.00054682392
-0.00030186984
-0.084385672
-0.084482028
-0.084732553
-0.085285829
-0.085503039
-0.085208064
-0.08451829
-0.083511342
-0.082188224
-0.080545818
-0.078602674
-0.07638665
-0.073925209
-0.0712459
-0.068378401
-0.065354241
-0.062205572
-0.058964504
-0.055662736
-0.052330922
-0.048998126
-0.045691447
-0.042435699
-0.039253153
-0.036163354
-0.033183016
-0.030325995
-0.027603321
-0.025023298
-0.022591644
-0.020311676
-0.018184526
-0.016209379
-0.014383725
-0.012703611
-0.011163906
-0.0097585418
-0.0084807573
-0.007323316
-0.0062786933
-0.0053392756
-0.0044973602
-0.0037455432
-0.0030755925
-0.002480918
-0.0019486194
-0.0014726465
-0.0010314725
-0.00053794872
-0.00040967523
-0.073878509
-0.074336308
-0.074905875
-0.075713777
-0.076236457
-0.076320592
-0.07605432
-0.075497628
-0.074648871
-0.073502106
-0.072069105
-0.070370335
-0.068427
-0.066261035
-0.063896722
-0.06136061
-0.058680556
-0.055884971
-0.053002418
-0.050061214
-0.047088843
-0.044111472
-0.04115359
-0.038237705
-0.035384092
-0.032610613
-0.02993261
-0.027362858
-0.024911594
-0.022586584
-0.020393249
-0.018334824
-0.016412549
-0.014625883
-0.01297273
-0.01144967
-0.010052196
-0.008774936
-0.007611866
-0.0065564958
-0.0056020455
-0.0047414926
-0.0039677814
-0.0032732159
-0.0026503286
-0.0020887637
-0.0015747871
-0.0011092612
-0.00055094698
-0.00048392029
-0.064255088
-0.064962669
-0.065757794
-0.066744925
-0.067493544
-0.067871592
-0.067945268
-0.06775994
-0.067311073
-0.066590209
-0.065603456
-0.06436471
-0.062889213
-0.061193414
-0.05929626
-0.057219204
-0.054985473
-0.052619425
-0.050146112
-0.047590883
-0.044978947
-0.042334859
-0.039682106
-0.037042759
-0.034437185
-0.0318838
-0.029398894
-0.026996522
-0.024688449
-0.022484156
-0.020390903
-0.018413825
-0.016556071
-0.014818975
-0.013202244
-0.011704159
-0.010321786
-0.0090511805
-0.0078875889
-0.0068256226
-0.0058594176
-0.0049827072
-0.0041889193
-0.0034709003
-0.002820809
-0.0022300404
-0.0016806409
-0.0011872277
-0.00058210614
-0.00052940846
-0.055495993
-0.056365394
-0.057307764
-0.058408648
-0.059313998
-0.059910679
-0.060248137
-0.060360091
-0.060239614
-0.059876244
-0.059271478
-0.058433609
-0.05737253
-0.056099585
-0.054628648
-0.052976203
-0.051160783
-0.049202459
-0.047122467
-0.044942827
-0.042685932
-0.040374132
-0.038029294
-0.035672432
-0.033323382
-0.031000521
-0.028720537
-0.026498255
-0.024346526
-0.022276165
-0.020295948
-0.018412649
-0.01663113
-0.014954452
-0.013384025
-0.011919776
-0.010560321
-0.0093031535
-0.0081448193
-0.0070810813
-0.0061070594
-0.0052173143
-0.0044058801
-0.003666185
-0.0029904257
-0.0023712142
-0.0017889688
-0.0012655643
-0.00062666719
-0.00055293085
-0.047566431
-0.048530044
-0.049557245
-0.050718015
-0.051721882
-0.052472504
-0.05300649
-0.053348478
-0.053489908
-0.053418983
-0.053133637
-0.052637595
-0.051936197
-0.051036277
-0.049947104
-0.048680512
-0.04725051
-0.04567288
-0.043964893
-0.04214499
-0.040232426
-0.038246879
-0.03620808
-0.034135432
-0.032047671
-0.029962564
-0.027896643
-0.02586499
-0.023881064
-0.02195659
-0.020101493
-0.018323881
-0.016630072
-0.015024658
-0.01351061
-0.012089395
-0.010761123
-0.0095246962
-0.0083779664
-0.0073178749
-0.0063405763
-0.0054415222
-0.0046154606
-0.0038564639
-0.0031570875
-0.0025108455
-0.0018982799
-0.0013440791
-0.00067960346
-0.00056200529
-0.04042154
-0.041428676
-0.042492883
-0.043671385
-0.044726703
-0.045577402
-0.046250365
-0.046763293
-0.047106757
-0.047268332
-0.047243397
-0.047032149
-0.046636253
-0.046058771
-0.045304982
-0.044382572
-0.043301373
-0.042073084
-0.040711066
-0.039230106
-0.037646126
-0.035975855
-0.034236493
-0.032445381
-0.030619661
-0.028775974
-0.026930173
-0.025097081
-0.023290285
-0.021521971
-0.019802811
-0.018141894
-0.016546696
-0.015023098
-0.013575433
-0.012206568
-0.010918002
-0.0097099886
-0.0085816546
-0.0075311233
-0.006555615
-0.0056515231
-0.004814399
-0.0040390329
-0.0033185773
-0.0026472978
-0.0020068935
-0.0014221881
-0.00073635545
-0.00056357202
-0.034010848
-0.035024698
-0.036090612
-0.037255346
-0.038325537
-0.03923292
-0.039997116
-0.040630646
-0.041123867
-0.041464359
-0.041645864
-0.041666028
-0.041523732
-0.041219052
-0.04075399
-0.040132699
-0.03936133
-0.038447869
-0.037402002
-0.036234965
-0.034959325
-0.033588726
-0.032137608
-0.030620921
-0.029053824
-0.027451392
-0.025828333
-0.024198736
-0.022575841
-0.020971844
-0.019397746
-0.017863231
-0.016376602
-0.014944738
-0.013573098
-0.012265758
-0.011025465
-0.0098537207
-0.0087508686
-0.007716187
-0.0067479676
-0.005843579
-0.0049994448
-0.0042111448
-0.0034725964
-0.0027787738
-0.0021130243
-0.0014989862
-0.00079334299
-0.00056297966
-0.028281627
-0.029276528
-0.030319193
-0.03144778
-0.032505588
-0.03343589
-0.034252947
-0.034965488
-0.035564165
-0.036037074
-0.036377096
-0.036580189
-0.036643275
-0.036564225
-0.036342496
-0.035979381
-0.035477945
-0.034842945
-0.034080769
-0.033199358
-0.032208064
-0.031117471
-0.029939175
-0.028685552
-0.027369508
-0.026004218
-0.024602864
-0.023178382
-0.021743234
-0.020309193
-0.018887167
-0.017487048
-0.016117601
-0.014786384
-0.013499709
-0.012262629
-0.011078957
-0.0099513037
-0.0088811307
-0.0078688129
-0.0069136913
-0.0060141194
-0.0051674369
-0.0043700734
-0.0036168192
-0.0029033747
-0.0022148703
-0.0015733591
-0.00084814824
-0.00056350263
-0.023181162
-0.024140225
-0.025143022
-0.026220613
-0.027246737
-0.028174687
-0.029014792
-0.029773045
-0.030440752
-0.031006889
-0.031464082
-0.031807327
-0.032032302
-0.032135379
-0.032114176
-0.031967799
-0.031696854
-0.031303423
-0.03079107
-0.030164815
-0.029431069
-0.028597517
-0.027672972
-0.026667198
-0.025590715
-0.02445458
-0.023270165
-0.022048923
-0.020802167
-0.019540861
-0.018275427
-0.017015578
-0.015770175
-0.014547122
-0.013353278
-0.012194415
-0.011075191
-0.0099991481
-0.0089687341
-0.0079853275
-0.0070492649
-0.0061598664
-0.0053154035
-0.004513194
-0.0037489625
-0.0030191749
-0.0023106893
-0.0016440994
-0.000899381
-0.00056644142
-0.018658584
-0.019571677
-0.020524534
-0.021542308
-0.022524009
-0.023431571
-0.024272429
-0.025050624
-0.025758327
-0.026385621
-0.026925327
-0.02737203
-0.027720755
-0.027966981
-0.028107106
-0.028138683
-0.028060468
-0.027872442
-0.027575859
-0.027173272
-0.026668518
-0.026066663
-0.02537392
-0.024597529
-0.023745619
-0.02282704
-0.021851186
-0.020827791
-0.019766739
-0.018677859
-0.017570743
-0.016454569
-0.015337948
-0.014228787
-0.013134185
-0.012060349
-0.011012535
-0.0099950119
-0.0090110463
-0.0080628948
-0.0071518033
-0.0062780096
-0.0054407015
-0.0046380971
-0.0038668772
-0.0031243121
-0.0023988588
-0.0017100027
-0.00094635028
-0.00057165243
-0.014665967
-0.01552806
-0.016425946
-0.017379802
-0.018309634
-0.019184775
-0.020010518
-0.020789505
-0.02151487
-0.022177909
-0.022771931
-0.02329152
-0.023731494
-0.024086919
-0.024353495
-0.02452777
-0.024607206
-0.024590229
-0.024476307
-0.024266002
-0.023961
-0.023564107
-0.023079211
-0.022511228
-0.021866006
-0.021150217
-0.020371221
-0.01953691
-0.018655547
-0.017735591
-0.016785525
-0.015813692
-0.014828132
-0.013836445
-0.01284566
-0.011862135
-0.010891463
-0.009938414
-0.0090068794
-0.0080998397
-0.0072193335
-0.0063664364
-0.0055412057
-0.0047427417
-0.0039686725
-0.0032170956
-0.0024779317
-0.0017699433
-0.00098871337
-0.00057823314
-0.011159678
-0.011969446
-0.012811054
-0.013700442
-0.014575058
-0.015410548
-0.016210595
-0.016976822
-0.017703337
-0.018382663
-0.019008767
-0.0195765
-0.020080788
-0.020516646
-0.020879481
-0.021165284
-0.021370698
-0.021493083
-0.021530602
-0.021482299
-0.021348147
-0.021129083
-0.020827016
-0.020444806
-0.019986227
-0.0194559
-0.018859204
-0.01820217
-0.017491351
-0.01673369
-0.015936366
-0.015106648
-0.01425175
-0.013378685
-0.012494135
-0.011604331
-0.010714949
-0.0098310213
-0.0089568578
-0.008095987
-0.0072510983
-0.0064239974
-0.005615535
-0.0048256459
-0.0040528698
-0.0032961328
-0.0025467021
-0.0018229412
-0.001026236
-0.0005851063
-0.0081005703
-0.0088594584
-0.0096463053
-0.010473413
-0.011292721
-0.012085225
-0.012853373
-0.013598031
-0.014314227
-0.014995657
-0.015637014
-0.016233575
-0.016780578
-0.01727323
-0.017706942
-0.01807749
-0.018381078
-0.018614408
-0.018774764
-0.018860096
-0.018869087
-0.018801206
-0.018656742
-0.018436825
-0.018143419
-0.0177793
-0.017348012
-0.016853796
-0.016301507
-0.015696517
-0.015044596
-0.014351788
-0.013624284
-0.012868294
-0.012089914
-0.011295008
-0.010489095
-0.009677239
-0.0088639608
-0.0080531496
-0.0072479871
-0.0064508793
-0.0056633686
-0.0048861505
-0.0041186155
-0.0033604963
-0.0026043066
-0.0018682429
-0.0010587114
-0.00059137392
-0.0054549181
-0.0061660576
-0.0069014605
-0.0076702503
-0.0084363883
-0.0091853836
-0.0099187217
-0.010636685
-0.01133513
-0.012008824
-0.012653188
-0.013263998
-0.013836912
-0.014367476
-0.014851301
-0.015284191
-0.015662194
-0.015981675
-0.016239383
-0.016432542
-0.016558917
-0.01661688
-0.016605462
-0.016524395
-0.016374132
-0.016155862
-0.015871495
-0.015523636
-0.015115535
-0.014651027
-0.014134452
-0.013570557
-0.012964397
-0.012321226
-0.011646377
-0.01094515
-0.0102227
-0.00948392
-0.0087333416
-0.0079750322
-0.0072125009
-0.006448612
-0.0056854805
-0.0049244669
-0.0041657327
-0.0034097704
-0.0026502479
-0.0019053413
-0.0010859452
-0.00059642015
-0.0031967501
-0.0038649498
-0.0045539158
-0.0052700849
-0.0059873149
-0.0066948693
-0.0073934662
-0.0080829262
-0.0087598219
-0.0094198631
-0.010059152
-0.010673968
-0.011260429
-0.01181449
-0.012332076
-0.012809167
-0.013241857
-0.013626399
-0.01395928
-0.014237287
-0.014457583
-0.01461777
-0.014715949
-0.014750776
-0.014721502
-0.014628008
-0.014470818
-0.014251107
-0.013970681
-0.013631951
-0.013237886
-0.012791952
-0.012298037
-0.011760363
-0.011183396
-0.010571738
-0.0099300241
-0.0092628139
-0.0085744807
-0.0078691044
-0.0071503649
-0.0064214408
-0.0056848917
-0.0049426323
-0.0041954973
-0.0034446704
-0.0026848745
-0.001934343
-0.0011080551
-0.00060003683
-0.0012998987
-0.0019301583
-0.0025781017
-0.0032477709
-0.0039211109
-0.0045905006
-0.0052560467
-0.0059171899
-0.0065710997
-0.0072142869
-0.0078434553
-0.0084553553
-0.0090465515
-0.0096134202
-0.010152239
-0.010659252
-0.01113071
-0.01156291
-0.011952258
-0.012295325
-0.012588915
-0.012830124
-0.013016404
-0.013145621
-0.013216112
-0.013226723
-0.013176856
-0.013066486
-0.012896179
-0.012667088
-0.012380937
-0.012039993
-0.011647014
-0.011205195
-0.010718092
-0.010189541
-0.0096235641
-0.0090242674
-0.0083957378
-0.0077419315
-0.0070665612
-0.0063729859
-0.0056640825
-0.0049422032
-0.0042087478
-0.0034655038
-0.0027081396
-0.0019549703
-0.0011247116
-0.00060186365
0.00023154598
-0.00036770023
-0.00098177959
-0.0016129833
-0.0022496428
-0.0028865705
-0.0035233782
-0.0041592077
-0.0047917076
-0.0054180374
-0.006035401
-0.0066409544
-0.0072316588
-0.0078042775
-0.0083554334
-0.0088816528
-0.0093793946
-0.0098450856
-0.010275165
-0.010666135
-0.011014616
-0.011317406
-0.011571534
-0.011774324
-0.011923451
-0.012016996
-0.012053496
-0.01203198
-0.01195201
-0.011813695
-0.011617701
-0.011365249
-0.011058091
-0.010698479
-0.010289111
-0.0098330734
-0.0093337576
-0.0087947766
-0.0082198644
-0.0076127693
-0.0069771394
-0.0063164082
-0.0056336586
-0.0049315681
-0.0042119876
-0.003477206
-0.0027237089
-0.0019698751
-0.0011377698
-0.00060288418
0.0014419819
0.00086832082
0.00028201262
-0.00031763085
-0.00092389676
-0.0015335301
-0.0021457662
-0.0027595008
-0.0033727461
-0.0039831668
-0.004588364
-0.0051858228
-0.0057728322
-0.0063464835
-0.0069037032
-0.0074412797
-0.007955886
-0.0084441065
-0.0089024723
-0.0093275021