/*--------------------------------*- C++ -*----------------------------------*\
  =========                 |
  \\      /  F ield         | OpenFOAM: The Open Source CFD Toolbox
   \\    /   O peration     | Website:  https://openfoam.org
    \\  /    A nd           | Version:  6
     \\/     M anipulation  |
\*---------------------------------------------------------------------------*/
FoamFile
{
    version     2.0;
    format      ascii;
    class       volScalarField;
    location    "150";
    object      p;
}
// * * * * * * * * * * * * * * * * * * * * * * * * * * * * * * * * * * * * * //

dimensions      [0 2 -2 0 0 0 0];

internalField   nonuniform List<scalar> 
9200
(
-0.37795485
-0.36660834
-0.35651464
-0.34756534
-0.33882562
-0.33030937
-0.32209487
-0.31414961
-0.30640627
-0.29879293
-0.29123662
-0.28366831
-0.27602984
-0.2682812
-0.26041115
-0.25245497
-0.24448901
-0.23660108
-0.22981609
-0.22841606
-0.39581559
-0.3820179
-0.36998057
-0.35951147
-0.34939973
-0.3396268
-0.33026143
-0.32124036
-0.31246409
-0.30383426
-0.29525771
-0.28665222
-0.2779541
-0.26912417
-0.26015333
-0.25106655
-0.24189368
-0.23263443
-0.22397173
-0.21807153
-0.4140933
-0.3978216
-0.38388656
-0.37196811
-0.36053966
-0.34953204
-0.33899273
-0.32882
-0.3188802
-0.30905244
-0.29923244
-0.28933813
-0.27931643
-0.2691464
-0.25883906
-0.24843307
-0.23796722
-0.22745044
-0.21728199
-0.20857693
-0.43235393
-0.41362733
-0.39785995
-0.38455375
-0.37182884
-0.35954907
-0.3477328
-0.33623934
-0.32490876
-0.31361306
-0.3022576
-0.29078414
-0.27917399
-0.26744581
-0.25564889
-0.24385304
-0.2321248
-0.22050307
-0.20925529
-0.19912258
-0.44996754
-0.42888908
-0.41140609
-0.39678923
-0.38277755
-0.36915716
-0.35591713
-0.34288848
-0.32990556
-0.31686031
-0.30369745
-0.29041079
-0.27703912
-0.26365627
-0.25035773
-0.23724641
-0.22441239
-0.21191418
-0.19993999
-0.18899724
-0.46610965
-0.44288784
-0.42386489
-0.4080268
-0.39272179
-0.3776583
-0.36280854
-0.34800087
-0.33309807
-0.31804837
-0.30286872
-0.28762969
-0.27244119
-0.25743436
-0.24274335
-0.2284902
-0.21476954
-0.20163727
-0.18921937
-0.17785261
-0.47977511
-0.4547373
-0.4344117
-0.41745248
-0.40083386
-0.38420241
-0.36754134
-0.35071706
-0.33366526
-0.31642986
-0.29912822
-0.28192149
-0.26498984
-0.24850891
-0.23263115
-0.21747444
-0.20311446
-0.18958233
-0.17694491
-0.16540339
-0.48980012
-0.46340731
-0.44208973
-0.42413295
-0.40618689
-0.38787018
-0.36921968
-0.35019205
-0.33084435
-0.31135113
-0.29194749
-0.27288477
-0.25439875
-0.23668629
-0.21989215
-0.20410615
-0.18936547
-0.17566196
-0.16300453
-0.15148043
-0.49484247
-0.46762261
-0.44561301
-0.42673244
-0.40740495
-0.38728331
-0.36651798
-0.34521318
-0.32358685
-0.30195974
-0.28067813
-0.26006088
-0.24036865
-0.22178818
-0.20443026
-0.18833804
-0.17349939
-0.15986268
-0.14738282
-0.13604956
-0.49355172
-0.46596632
-0.44343395
-0.42358563
-0.40276627
-0.38074634
-0.35785541
-0.33439099
-0.31074573
-0.28736971
-0.26468309
-0.24302684
-0.22264369
-0.20367732
-0.18618412
-0.17015193
-0.15551977
-0.14219816
-0.13009526
-0.11911594
-0.26507259
-0.26974689
-0.27225531
-0.27300645
-0.27279232
-0.27179981
-0.27011035
-0.26781151
-0.26497546
-0.26165697
-0.25790006
-0.25374224
-0.24921663
-0.2443533
-0.23918051
-0.23372716
-0.22802411
-0.2220919
-0.21592955
-0.2096226
-0.26780523
-0.27206427
-0.27426594
-0.2747984
-0.27440121
-0.27325248
-0.27143175
-0.26902288
-0.26609452
-0.26269854
-0.25887658
-0.25466404
-0.25009215
-0.24518896
-0.23998016
-0.23449359
-0.22876762
-0.22282112
-0.2165468
-0.20991872
-0.27313471
-0.27658168
-0.27818536
-0.2782901
-0.27753398
-0.2760797
-0.27400328
-0.27138131
-0.26827549
-0.26473209
-0.26078792
-0.25647416
-0.25181825
-0.24684441
-0.24157348
-0.23603046
-0.2302651
-0.22429516
-0.21782152
-0.21058645
-0.28082115
-0.2831056
-0.28384374
-0.28331976
-0.28203073
-0.28011978
-0.27765896
-0.27471501
-0.27133995
-0.26757222
-0.26344177
-0.25897368
-0.25418986
-0.24910883
-0.24374461
-0.23811703
-0.23228782
-0.22627932
-0.21954606
-0.21146047
-0.29056226
-0.29139299
-0.29102957
-0.28968832
-0.28769742
-0.2851792
-0.28220254
-0.27882288
-0.27508085
-0.27100562
-0.26661891
-0.26193751
-0.25697582
-0.25174544
-0.24625225
-0.24050774
-0.2345816
-0.22850938
-0.22148641
-0.21237037
-0.30204425
-0.30119166
-0.29952542
-0.29719486
-0.29434242
-0.29107102
-0.2874486
-0.28351954
-0.27931251
-0.27484503
-0.27012798
-0.26516893
-0.25997344
-0.25454471
-0.24887947
-0.2429779
-0.2369097
-0.23072983
-0.22340249
-0.2131492
-0.31498819
-0.31227657
-0.30914059
-0.30566969
-0.30181192
-0.29765396
-0.29326663
-0.28868295
-0.28391686
-0.27897341
-0.273852
-0.26854892
-0.26305913
-0.25737627
-0.251488
-0.24538269
-0.23912285
-0.23278607
-0.22516857
-0.21378667
-0.32917807
-0.32447267
-0.3197332
-0.31499894
-0.31001928
-0.30486763
-0.29961806
-0.29429136
-0.28888673
-0.28339478
-0.27780059
-0.27208614
-0.26623281
-0.26022215
-0.25403215
-0.24764225
-0.24111222
-0.2345656
-0.22674989
-0.21447097
-0.34446081
-0.33764759
-0.33119286
-0.32509592
-0.31890014
-0.31266433
-0.30646769
-0.30031829
-0.29419771
-0.28807896
-0.28192916
-0.27571189
-0.2693894
-0.26292294
-0.25626807
-0.24937691
-0.24227377
-0.23506485
-0.22649282
-0.21305529
-0.36073754
-0.35169357
-0.34340738
-0.33584317
-0.3283249
-0.32089655
-0.31364238
-0.30655544
-0.2995972
-0.29272138
-0.28587685
-0.27901045
-0.27206983
-0.26500358
-0.25775584
-0.2502622
-0.24246554
-0.23415923
-0.22369242
-0.20802366
-0.20247185
-0.19352351
-0.18457021
-0.17567596
-0.16678705
-0.15794516
-0.1492038
-0.14059803
-0.13215713
-0.12390971
-0.11588157
-0.10809489
-0.10056882
-0.093319701
-0.086361133
-0.079703997
-0.073356586
-0.067324704
-0.061611762
-0.056218889
-0.051145059
-0.046387226
-0.041940474
-0.037798186
-0.033952221
-0.030393097
-0.027110188
-0.024091915
-0.021325945
-0.018799381
-0.016498944
-0.014411157
-0.012522499
-0.01081957
-0.0092892262
-0.0079187162
-0.0066958049
-0.005608877
-0.0046471141
-0.0038004181
-0.0030602317
-0.002417548
-0.0018700986
-0.0014012273
-0.0010465494
-0.00069639926
-0.00068961902
-8.1148027e-05
-0.0017079189
0.0024537101
-0.20348189
-0.19413629
-0.18507396
-0.17619404
-0.1672871
-0.15841503
-0.14964924
-0.14102121
-0.13255774
-0.124288
-0.11623806
-0.10843
-0.10088294
-0.093613299
-0.086634747
-0.079958225
-0.073592089
-0.067542203
-0.061812031
-0.056402744
-0.051313346
-0.046540813
-0.042080242
-0.037925018
-0.034066992
-0.030496668
-0.0272034
-0.024175582
-0.02140085
-0.018866271
-0.016558529
-0.014464105
-0.012569437
-0.010861082
-0.0093258544
-0.0079509578
-0.006724116
-0.0056336719
-0.0046687669
-0.0038192631
-0.0030765635
-0.0024316247
-0.0018821212
-0.001411405
-0.001054812
-0.00070332697
-0.00069302759
-8.6970608e-05
-0.0016933636
0.0024251151
-0.2056006
-0.19540437
-0.1861246
-0.17731336
-0.16838283
-0.15945008
-0.15063667
-0.14196462
-0.13345413
-0.12513648
-0.117039
-0.10918363
-0.10158962
-0.094273726
-0.087249891
-0.080529278
-0.074120454
-0.068029468
-0.062259935
-0.056813151
-0.051688209
-0.046882147
-0.042390095
-0.038205448
-0.034320043
-0.030724352
-0.027407677
-0.02435835
-0.021563928
-0.019011393
-0.016687338
-0.014578143
-0.012670149
-0.010949807
-0.0094038293
-0.0080193182
-0.0067838972
-0.0056858117
-0.0047141086
-0.0038585583
-0.0031104734
-0.0024607252
-0.0019068706
-0.0014322551
-0.001071687
-0.0007173522
-0.00070002977
-9.8473323e-05
-0.0016647923
0.002368539
-0.20866923
-0.19709631
-0.18749556
-0.17888329
-0.16996337
-0.16095392
-0.15208639
-0.14336539
-0.13479586
-0.12641419
-0.11825139
-0.11032947
-0.10266795
-0.09528445
-0.088193613
-0.081407125
-0.074934012
-0.068780729
-0.062951228
-0.05744707
-0.052267554
-0.047409864
-0.042869228
-0.038639088
-0.034711291
-0.031076278
-0.027723292
-0.024640578
-0.021815587
-0.019235175
-0.016885795
-0.014753681
-0.012825016
-0.011086095
-0.0095234693
-0.0081240821
-0.0068754009
-0.0057655184
-0.0047833337
-0.0039184731
-0.0031621081
-0.0025049765
-0.0019444554
-0.0014638709
-0.0010972542
-0.00073853737
-0.00071072385
-0.00011560772
-0.0016229521
0.0022852062
-0.21246115
-0.19894159
-0.18891764
-0.18070615
-0.17188221
-0.16279875
-0.15388816
-0.14513454
-0.13651141
-0.12806237
-0.11982695
-0.11182826
-0.10408627
-0.096620055
-0.089445636
-0.082575735
-0.076020222
-0.069786293
-0.06387852
-0.058298964
-0.053047317
-0.048121062
-0.043515639
-0.039224628
-0.035239943
-0.031552037
-0.028150111
-0.025022325
-0.022156012
-0.019537878
-0.017154205
-0.014991038
-0.013034359
-0.011270253
-0.0096850613
-0.0082655136
-0.0069988669
-0.005873008
-0.0048766351
-0.0039991794
-0.0032316202
-0.0025645135
-0.0019949944
-0.0015063566
-0.0011316085
-0.00076695353
-0.00072525499
-0.00013827214
-0.001568986
0.0021770022
-0.21662904
-0.20065973
-0.19012169
-0.18254876
-0.17396703
-0.16484117
-0.15590989
-0.14715808
-0.13850807
-0.13000504
-0.12170233
-0.11362756
-0.10580166
-0.098245595
-0.090977624
-0.084012258
-0.077360779
-0.07103159
-0.065030289
-0.059359783
-0.054020442
-0.049010279
-0.044325135
-0.039958872
-0.035903585
-0.032149819
-0.028686787
-0.025502598
-0.022584476
-0.019918976
-0.01749219
-0.015289946
-0.013297989
-0.011502155
-0.0098885231
-0.0084435632
-0.0071542707
-0.0060082745
-0.0049940217
-0.004100697
-0.0033190383
-0.0026393717
-0.0020585283
-0.0015597571
-0.001174803
-0.00080264232
-0.00074377689
-0.00016632427
-0.0015043403
0.0020463814
-0.22077538
-0.20206915
-0.19089599
-0.18413342
-0.17601732
-0.16695422
-0.15803651
-0.1493238
-0.14068995
-0.13216433
-0.12381266
-0.11567245
-0.10776798
-0.10012255
-0.092757362
-0.085689693
-0.078933035
-0.072497607
-0.066390555
-0.060616075
-0.055175587
-0.050067938
-0.045289615
-0.040834958
-0.036696397
-0.032864681
-0.02932912
-0.026077826
-0.023097945
-0.02037589
-0.017897562
-0.015648552
-0.013614344
-0.011780484
-0.010132754
-0.0086573163
-0.0073408585
-0.0061707038
-0.0051349993
-0.0042226356
-0.003424061
-0.0027293259
-0.0021348965
-0.0016239677
-0.0012267861
-0.00084558156
-0.00076642531
-0.00019961227
-0.0014306636
0.0018962332
-0.22463932
-0.20356549
-0.19146488
-0.1852727
-0.17781883
-0.16905052
-0.16022442
-0.1515755
-0.14299511
-0.13448461
-0.12610878
-0.11791776
-0.10994358
-0.10221308
-0.094750811
-0.087577557
-0.080709822
-0.074160266
-0.067938081
-0.062049192
-0.056496441
-0.051279822
-0.046396724
-0.041842181
-0.037609125
-0.033688644
-0.030070244
-0.026742111
-0.023691363
-0.0209043
-0.018366638
-0.016063729
-0.013980776
-0.012103013
-0.010415891
-0.0089052279
-0.0075573617
-0.0063592673
-0.005298748
-0.0043643557
-0.0035462037
-0.002834025
-0.0022238605
-0.0016988471
-0.0012875017
-0.00089577228
-0.00079338803
-0.00023804326
-0.001349754
0.0017298475
-0.22587863
-0.2053934
-0.19252389
-0.18590291
-0.17893645
-0.17074976
-0.16220012
-0.15368032
-0.14520694
-0.13677348
-0.12842757
-0.12022708
-0.11221514
-0.10442442
-0.096883431
-0.089617071
-0.082645703
-0.075985259
-0.069647714
-0.063641381
-0.057971128
-0.052638633
-0.047642654
-0.042979317
-0.038642395
-0.034623595
-0.030912847
-0.027498591
-0.024368054
-0.021507521
-0.018902594
-0.01653843
-0.014399968
-0.012472134
-0.010740033
-0.0091891156
-0.0078053384
-0.0065752893
-0.0054863857
-0.0045267955
-0.0036862498
-0.0029541177
-0.0023259538
-0.0017848223
-0.0013573048
-0.00095343582
-0.00082505091
-0.00028132463
-0.0012637683
0.0015514941
-0.21601797
-0.20463948
-0.19364161
-0.1855542
-0.17849839
-0.17108596
-0.16314255
-0.15498864
-0.14680316
-0.13861216
-0.13044336
-0.12235424
-0.11440031
-0.10662448
-0.099062604
-0.091746223
-0.084702008
-0.077951423
-0.071511168
-0.065393597
-0.05960701
-0.054155953
-0.049041546
-0.044261824
-0.039812071
-0.035685151
-0.03187185
-0.028361195
-0.025140778
-0.022197061
-0.019515663
-0.017081631
-0.014879696
-0.012894495
-0.011110788
-0.0095136381
-0.0080885907
-0.0068218058
-0.0057002686
-0.0047117121
-0.0038454337
-0.0030903829
-0.002441571
-0.0018819436
-0.0014360242
-0.001018046
-0.00086122253
-0.00032779654
-0.0011752665
0.0013666763
-0.19388001
-0.19858707
-0.19331388
-0.18440963
-0.17690707
-0.16989934
-0.16239919
-0.15454213
-0.14659401
-0.13861804
-0.13063377
-0.12269411
-0.11485833
-0.10717377
-0.099679448
-0.092409839
-0.085394583
-0.07865794
-0.072219127
-0.066092759
-0.060289163
-0.054814673
-0.049671977
-0.044860463
-0.040376573
-0.036214154
-0.032364806
-0.028818227
-0.025562547
-0.022584646
-0.019870461
-0.017405265
-0.015173939
-0.013161206
-0.011351854
-0.0097309305
-0.0082839265
-0.0069969181
-0.0058567783
-0.0048511126
-0.0039690401
-0.0031993958
-0.0025367278
-0.001964419
-0.0015042313
-0.0010767139
-0.00089237015
-0.0003742286
-0.0010848261
0.0011832991
-0.18333117
-0.18915206
-0.18567914
-0.17694051
-0.16973774
-0.16348175
-0.15678208
-0.1496389
-0.14234815
-0.13498485
-0.12755877
-0.12011846
-0.11272565
-0.10543138
-0.09827823
-0.091304495
-0.084543857
-0.078024582
-0.071769725
-0.06579754
-0.06012177
-0.054751924
-0.049693617
-0.044948916
-0.040516704
-0.036393032
-0.032571483
-0.029043524
-0.025798855
-0.022825736
-0.02011131
-0.017641897
-0.015403271
-0.013380916
-0.011560259
-0.0099268745
-0.0084666822
-0.0071660995
-0.0060122554
-0.0049929574
-0.0040973961
-0.003314588
-0.0026386385
-0.0020539483
-0.0015785628
-0.0011420106
-0.00092595702
-0.00042877222
-0.00098392635
0.00098558674
-0.174593
-0.17781443
-0.17553743
-0.16851685
-0.1621645
-0.15660243
-0.15066953
-0.1442564
-0.13762968
-0.13088449
-0.12403271
-0.11711672
-0.11019703
-0.10332651
-0.096549856
-0.089907742
-0.08343676
-0.077168392
-0.071128986
-0.06534008
-0.059818637
-0.054577269
-0.049624537
-0.044965276
-0.040600941
-0.036529955
-0.032748068
-0.02924871
-0.026023345
-0.023061806
-0.020352624
-0.017883334
-0.015640767
-0.01361131
-0.011781157
-0.010136525
-0.008663863
-0.007350016
-0.0061824402
-0.0051492066
-0.0042396181
-0.0034429226
-0.0027527559
-0.002154667
-0.0016626133
-0.0012160144
-0.00096498208
-0.00049019816
-0.00087552609
0.00076902309
-0.16491485
-0.16552758
-0.16369619
-0.15875169
-0.15362928
-0.14880984
-0.14366806
-0.13806664
-0.13218297
-0.12611787
-0.11989901
-0.11356683
-0.10717845
-0.10078742
-0.094440237
-0.088179591
-0.082044563
-0.076069599
-0.070284242
-0.064713311
-0.05937707
-0.054291386
-0.04946797
-0.044914661
-0.040635745
-0.036632285
-0.032902467
-0.02944195
-0.026244215
-0.023300909
-0.020602175
-0.01813697
-0.015893365
-0.01385882
-0.012020445
-0.010365228
-0.0088802598
-0.0075529075
-0.0063710347
-0.0053230406
-0.0043983908
-0.0035865992
-0.0028808533
-0.0022678536
-0.0017574484
-0.0012989267
-0.0010106834
-0.00055598071
-0.0007671862
0.00054367127
-0.15434565
-0.15307851
-0.15126916
-0.14803954
-0.14421035
-0.14019576
-0.13585102
-0.13109356
-0.12600685
-0.12067394
-0.11513796
-0.10944195
-0.10363887
-0.097781132
-0.091916169
-0.08608793
-0.08033724
-0.074700945
-0.069211416
-0.063896544
-0.058779804
-0.05388034
-0.049213115
-0.044789145
-0.040615764
-0.036696922
-0.033033506
-0.029623677
-0.026463205
-0.023545811
-0.020863503
-0.018406892
-0.016165505
-0.014128071
-0.012282789
-0.010617576
-0.0091202955
-0.0077789548
-0.0065819218
-0.0055180017
-0.0045768888
-0.0037484001
-0.0030253291
-0.0023954705
-0.0018647406
-0.0013917806
-0.0010645591
-0.00062548796
-0.00066494519
0.00031763855
-0.14255908
-0.14050013
-0.13880534
-0.13685003
-0.1341917
-0.1310131
-0.12745548
-0.12352266
-0.11923675
-0.1146536
-0.1098241
-0.10479295
-0.099608578
-0.094321006
-0.088977513
-0.083622271
-0.078296745
-0.073039185
-0.067884031
-0.062861672
-0.057998377
-0.053316281
-0.048833451
-0.04456403
-0.040518434
-0.036703605
-0.033123283
-0.029778311
-0.026666957
-0.023785236
-0.021127238
-0.01868545
-0.016451062
-0.014414269
-0.012564541
-0.010890888
-0.0093820972
-0.0080269432
-0.0068144114
-0.0057338059
-0.0047751315
-0.0039285529
-0.0031865538
-0.0025379324
-0.0019850039
-0.0014948902
-0.0011275897
-0.00069827623
-0.0005747959
9.9579849e-05
-0.12986504
-0.12793527
-0.12658856
-0.12554535
-0.12385064
-0.1214817
-0.11868438
-0.11553022
-0.11201607
-0.10817147
-0.10404637
-0.09968716
-0.095136785
-0.090440168
-0.08564322
-0.080789584
-0.075920371
-0.071074096
-0.066286257
-0.061588928
-0.057010514
-0.052575629
-0.048305061
-0.044215819
-0.040321255
-0.036631238
-0.033152372
-0.029888257
-0.026839773
-0.024005372
-0.021381397
-0.018962386
-0.016741376
-0.014710207
-0.012859795
-0.011180406
-0.0096619011
-0.0082939601
-0.0070663067
-0.0059688466
-0.00499199
-0.0041263019
-0.0033640653
-0.0026949704
-0.0021181922
-0.0016081816
-0.0012004494
-0.00077392795
-0.00050263998
-0.00010119189
-0.11697927
-0.11562968
-0.11477163
-0.11438423
-0.11344507
-0.11181136
-0.10972481
-0.10728781
-0.10449364
-0.1013541
-0.097911317
-0.094209597
-0.090288789
-0.086188197
-0.081948895
-0.077612797
-0.073220034
-0.068808451
-0.064413528
-0.060068048
-0.055801732
-0.05164098
-0.047608734
-0.043724428
-0.040004022
-0.036460086
-0.033101956
-0.029935932
-0.026965506
-0.02419163
-0.021612987
-0.019226289
-0.017026559
-0.01500743
-0.013161418
-0.011480194
-0.0099548383
-0.0085760709
-0.0073344794
-0.0062206791
-0.0052255893
-0.0043402365
-0.0035568315
-0.0028658401
-0.0022638496
-0.0017313255
-0.0012835126
-0.00085223124
-0.00045349911
-0.00027582408
-0.10444491
-0.10376185
-0.10341968
-0.1035263
-0.1031752
-0.10217878
-0.10073383
-0.098944043
-0.096805966
-0.094321903
-0.091524182
-0.088451777
-0.08514003
-0.081623905
-0.077939897
-0.074125543
-0.070218569
-0.066255449
-0.062270811
-0.058297196
-0.054364742
-0.050500848
-0.046729927
-0.043073264
-0.03954895
-0.036171896
-0.032953898
-0.029903767
-0.027027504
-0.024328507
-0.021807813
-0.019464351
-0.017295213
-0.015295927
-0.013460725
-0.01178281
-0.01025461
-0.0088680086
-0.0076145787
-0.0064857541
-0.0054730706
-0.0045680848
-0.0037630751
-0.0030491806
-0.0024209963
-0.0018636623
-0.0013767398
-0.00093318904
-0.00043073887
-0.00041717118
-0.092547565
-0.092450578
-0.092576824
-0.093071091
-0.09318134
-0.092719775
-0.091835464
-0.090618358
-0.08906728
-0.087179777
-0.084979093
-0.08249718
-0.079764114
-0.076809764
-0.073666164
-0.070366726
-0.066945216
-0.063435437
-0.059870401
-0.056281642
-0.052698877
-0.049149691
-0.045659238
-0.042250005
-0.03894166
-0.035750982
-0.032691848
-0.029775292
-0.027009605
-0.024400493
-0.021951262
-0.019663032
-0.017534974
-0.01556456
-0.01374781
-0.012079549
-0.010553652
-0.0091632758
-0.0079010842
-0.0067594325
-0.0057305784
-0.0048066821
-0.0039802333
-0.0032429681
-0.0025880834
-0.0020041499
-0.0014795992
-0.0010169127
-0.00043548791
-0.00052092372
-0.081427589
-0.081786602
-0.082295276
-0.083092138
-0.083563226
-0.083538769
-0.083129762
-0.082408318
-0.081372838
-0.080017955
-0.078359267
-0.076421362
-0.07422855
-0.071805431
-0.069178932
-0.066378086
-0.063432803
-0.060373278
-0.057229829
-0.054032232
-0.050809069
-0.047587367
-0.044392289
-0.041246855
-0.038171707
-0.035184964
-0.032302134
-0.029536097
-0.026897141
-0.024393054
-0.022029247
-0.019808931
-0.017733304
-0.015801767
-0.014012154
-0.012360958
-0.010843569
-0.0094544977
-0.0081875878
-0.0070362058
-0.0059934284
-0.0050520952
-0.0042050465
-0.0034445732
-0.0027630292
-0.0021513585
-0.0015910392
-0.0011034666
-0.00046634746
-0.0005864427
-0.071145446
-0.071832404
-0.072627444
-0.073649344
-0.0743956
-0.074718274
-0.074700239
-0.074397021
-0.073804931
-0.072916182
-0.071740047
-0.070294188
-0.068597047
-0.066667904
-0.064528501
-0.062203003
-0.059717123
-0.057097378
-0.054370745
-0.051564385
-0.048705052
-0.045818551
-0.042929377
-0.040060419
-0.037232681
-0.03446506
-0.0317742
-0.029174399
-0.026677583
-0.024293325
-0.022028921
-0.0198895
-0.017878174
-0.015996207
-0.014243215
-0.012617368
-0.011115602
-0.0097338295
-0.0084671404
-0.007309986
-0.0062563463
-0.0052998138
-0.0044337095
-0.0036508724
-0.0029433014
-0.002303494
-0.0017095004
-0.0011927018
-0.00051949358
-0.00061705153
-0.06171306
-0.062620769
-0.063613501
-0.064789428
-0.065735421
-0.066324028
-0.06661726
-0.066656904
-0.066436818
-0.065947072
-0.065191712
-0.064182271
-0.062931617
-0.061453862
-0.059765661
-0.057886262
-0.055836841
-0.053639919
-0.051318944
-0.048897945
-0.046401167
-0.043852564
-0.041275349
-0.038691658
-0.036122246
-0.033586223
-0.031100846
-0.028681365
-0.026340936
-0.024090576
-0.021939178
-0.019893568
-0.017958599
-0.016137282
-0.014430939
-0.012839378
-0.011361074
-0.0099933604
-0.008732614
-0.0075744233
-0.0065137413
-0.0055449813
-0.0046620628
-0.0038583958
-0.0031260316
-0.002458447
-0.0018329754
-0.0012841237
-0.00058921402
-0.00061959433
-0.053115634
-0.054159951
-0.055275869
-0.056543865
-0.057623909
-0.058406726
-0.058938516
-0.059250176
-0.059333521
-0.059176929
-0.058780229
-0.058149761
-0.057293412
-0.056220508
-0.054942903
-0.053475087
-0.051833688
-0.050037015
-0.048104729
-0.046057487
-0.043916577
-0.041703543
-0.039439757
-0.03714603
-0.034842297
-0.032547317
-0.03027843
-0.028051348
-0.025880017
-0.023776509
-0.021750986
-0.019811696
-0.017965014
-0.016215527
-0.014566145
-0.013018231
-0.011571756
-0.010225464
-0.008977027
-0.0078232047
-0.0067599749
-0.0057826315
-0.0048857946
-0.0040634928
-0.003308148
-0.0026138678
-0.0019591132
-0.0013768355
-0.00066881011
-0.00060324901
-0.045322384
-0.046439023
-0.047618888
-0.048927945
-0.05008679
-0.051002226
-0.051708392
-0.052227742
-0.052550743
-0.052664692
-0.052566195
-0.052257388
-0.051741944
-0.051024989
-0.05011404
-0.049019169
-0.047752658
-0.046328647
-0.044762888
-0.04307247
-0.041275484
-0.039390676
-0.0374371
-0.035433747
-0.033399207
-0.031351359
-0.029307105
-0.027282123
-0.025290685
-0.023345502
-0.021457633
-0.019636429
-0.017889524
-0.016222867
-0.014640786
-0.013146079
-0.011740134
-0.010423054
-0.009193794
-0.0080502916
-0.0069895829
-0.0060078917
-0.0051006233
-0.0042624862
-0.0034865074
-0.0027672575
-0.0020853642
-0.0014695737
-0.00075167786
-0.00057781522
-0.038291926
-0.039433088
-0.040631794
-0.041942155
-0.043135248
-0.044132125
-0.044957826
-0.045628393
-0.046133652
-0.046460477
-0.046603201
-0.046560747
-0.046333422
-0.045922858
-0.045332847
-0.044569545
-0.04364125
-0.042558168
-0.041332241
-0.039976944
-0.038507032
-0.036938237
-0.035286964
-0.033569979
-0.031804082
-0.030005802
-0.02819111
-0.026375171
-0.024572116
-0.022794859
-0.021054959
-0.019362517
-0.017726117
-0.016152811
-0.014648137
-0.013216166
-0.011859579
-0.010579758
-0.0093768911
-0.0082500805
-0.0071974309
-0.0062161293
-0.0053024334
-0.0044517957
-0.0036580073
-0.0029160641
-0.0022091442
-0.0015608222
-0.00083230013
-0.00055190889
-0.031976829
-0.03310822
-0.034292823
-0.035575042
-0.036767958
-0.03780522
-0.038705098
-0.039478883
-0.040116368
-0.040604594
-0.040936488
-0.041108691
-0.041118986
-0.040966279
-0.040651325
-0.04017697
-0.039548035
-0.038771173
-0.037854775
-0.036808843
-0.035644808
-0.034375306
-0.033013916
-0.0315749
-0.030072925
-0.028522775
-0.026939067
-0.025336005
-0.023727135
-0.02212514
-0.020541667
-0.018987188
-0.017470902
-0.016000668
-0.014582984
-0.013222987
-0.01192449
-0.010690038
-0.0095209716
-0.0084175094
-0.0073788125
-0.0064030458
-0.0054873636
-0.0046280206
-0.0038196689
-0.0030577703
-0.0023279874
-0.0016489649
-0.00090688361
-0.00053157165
-0.026327039
-0.027425196
-0.028572796
-0.029806269
-0.030973618
-0.032019535
-0.032957323
-0.033794819
-0.034522259
-0.035127321
-0.03560226
-0.035942252
-0.036143345
-0.036202461
-0.03611803
-0.035890249
-0.035521043
-0.035014006
-0.034374369
-0.033608943
-0.032726008
-0.031735157
-0.030647108
-0.029473488
-0.028226604
-0.026919201
-0.025564205
-0.024174474
-0.022762568
-0.02134053
-0.019919692
-0.018510515
-0.017122452
-0.01576385
-0.014441881
-0.01316251
-0.011930484
-0.01074935
-0.0096214893
-0.0085481581
-0.0075295322
-0.0065647441
-0.0056518652
-0.0047879949
-0.0039686941
-0.0031899688
-0.0024396601
-0.0017324298
-0.00097348353
-0.00051968457
-0.021292178
-0.022342149
-0.023437927
-0.024609355
-0.025733461
-0.026764548
-0.027712289
-0.028582059
-0.029364854
-0.030049333
-0.030627647
-0.031094185
-0.031443942
-0.031672533
-0.031776737
-0.031754757
-0.031606238
-0.031332265
-0.030935385
-0.030419608
-0.029790357
-0.029054379
-0.028219621
-0.027295075
-0.026290602
-0.025216729
-0.024084446
-0.022904975
-0.021689552
-0.020449217
-0.019194619
-0.017935835
-0.016682217
-0.015442263
-0.014223518
-0.013032501
-0.011874665
-0.010754371
-0.0096748865
-0.0086383974
-0.0076460203
-0.0066978176
-0.00579277
-0.0049288416
-0.0041025155
-0.0033104252
-0.0025422219
-0.0018097906
-0.0010316479
-0.00051627698
-0.016823432
-0.017816801
-0.018852274
-0.019954195
-0.021023749
-0.022023541
-0.022960589
-0.023838521
-0.024649287
-0.025382727
-0.026031302
-0.02658914
-0.027050736
-0.027410969
-0.027665566
-0.027811341
-0.027846255
-0.027769445
-0.027581292
-0.027283459
-0.026878894
-0.026371797
-0.025767554
-0.025072643
-0.024294508
-0.023441413
-0.022522275
-0.021546481
-0.020523697
-0.019463668
-0.018376038
-0.017270166
-0.016154965
-0.015038756
-0.013929146
-0.012832926
-0.011756
-0.010703324
-0.0096788738
-0.0086856218
-0.0077255219
-0.0067994982
-0.0059074043
-0.0050480625
-0.0042188659
-0.0034171467
-0.002634046
-0.001879818
-0.0010817947
-0.00051948204
-0.012874608
-0.013807871
-0.014779419
-0.015808944
-0.016817764
-0.017775626
-0.018687579
-0.019556012
-0.020373903
-0.021132365
-0.021824438
-0.022444363
-0.022986553
-0.023445607
-0.023816692
-0.024095762
-0.024279626
-0.024366011
-0.024353641
-0.02424231
-0.024032921
-0.023727494
-0.023329154
-0.022842082
-0.022271449
-0.021623312
-0.020904502
-0.020122476
-0.019285172
-0.018400837
-0.017477857
-0.016524594
-0.015549227
-0.014559595
-0.013563069
-0.012566429
-0.011575765
-0.010596396
-0.0096328012
-0.0086885734
-0.0077663712
-0.0068678836
-0.005993772
-0.0051436835
-0.0043158897
-0.0035084701
-0.0027138288
-0.0019415003
-0.0011246073
-0.00052668278
-0.0094036936
-0.010276885
-0.011184462
-0.012142116
-0.013087983
-0.013997928
-0.014875515
-0.015722232
-0.016532081
-0.017297448
-0.0180121
-0.018670637
-0.01926768
-0.019797883
-0.020256236
-0.020638256
-0.020940059
-0.021158429
-0.02129091
-0.021335889
-0.02129266
-0.021161465
-0.020943516
-0.020640991
-0.02025701
-0.01979558
-0.019261524
-0.018660386
-0.017998318
-0.017281947
-0.016518239
-0.015714349
-0.014877479
-0.014014731
-0.013132969
-0.012238694
-0.011337929
-0.010436114
-0.0095380234
-0.0086476813
-0.0077682978
-0.0069022061
-0.0060507844
-0.0052144456
-0.0043922925
-0.0035831734
-0.0027806167
-0.0019940651
-0.0011606578
-0.00053542409
-0.006372687
-0.0071884729
-0.0080347301
-0.0089236825
-0.0098075286
-0.010667349
-0.011505557
-0.012322967
-0.013114537
-0.013873861
-0.01459549
-0.015274519
-0.015905959
-0.016484741
-0.017005953
-0.017464998
-0.017857658
-0.018180168
-0.018429298
-0.018602448
-0.018697718
-0.018713969
-0.018650871
-0.018508929
-0.018289493
-0.017994746
-0.017627672
-0.017191999
-0.016692129
-0.01613305
-0.015520223
-0.014859471
-0.014156851
-0.013418524
-0.012650632
-0.011859163
-0.01104984
-0.010228002
-0.0093985012
-0.0085656055
-0.0077329099
-0.0069032523
-0.0060786171
-0.0052601011
-0.0044475757
-0.0036406514
-0.0028338977
-0.0020370421
-0.0011903206
-0.00054389415
-0.0037493789
-0.004511965
-0.0053012268
-0.0061263192
-0.0069511974
-0.0077613741
-0.0085583542
-0.0093424197
-0.010109386
-0.010853948
-0.011571428
-0.012257471
-0.012907569
-0.013517061
-0.01408131
-0.014595828
-0.015056331
-0.015458803
-0.015799577
-0.016075415
-0.01628359
-0.01642195
-0.01648898
-0.01648385
-0.016406449
-0.016257404
-0.01603808
-0.015750564
-0.015397625
-0.014982667
-0.014509656
-0.013983033
-0.013407619
-0.012788507
-0.012130951
-0.011440249
-0.010721629
-0.009980127
-0.0092204818
-0.0084470209
-0.0076635567
-0.0068732851
-0.0060786724
-0.0052814014
-0.0044820341
-0.0036809096
-0.002873578
-0.0020702406
-0.0012137953
-0.000550967
-0.0015080999
-0.0022232888
-0.0029615079
-0.0037292868
-0.0045003441
-0.005263906
-0.0060207387
-0.0067706924
-0.0075103203
-0.0082352832
-0.0089416156
-0.0096255073
-0.010282956
-0.010909763
-0.011501663
-0.012054412
-0.012563838
-0.013025895
-0.013436723
-0.013792733
-0.014090671
-0.014327691
-0.014501418
-0.014610008
-0.0146522
-0.014627352
-0.014535469
-0.014377216
-0.014153912
-0.013867507
-0.013520552
-0.013116145
-0.01265786
-0.012149673
-0.011595863
-0.011000921
-0.01036944
-0.0097060039
-0.0090150748
-0.0083008803
-0.007567296
-0.0068177335
-0.0060550133
-0.0052812949
-0.0044977401
-0.0037053566
-0.0029006104
-0.0020942392
-0.0012315884
-0.00055627017
0.00037525664
-0.00029835585
-0.0009917417
-0.0017090537
-0.0024320647
-0.003153109
-0.0038723514
-0.0045892764
-0.005301049
-0.0060041506
-0.0066952418
-0.0073710128
-0.008027943
-0.0086622951
-0.0092702036
-0.0098477383
-0.010390941
-0.010895868
-0.011358645
-0.011775531
-0.012142978
-0.012457701
-0.012716739
-0.012917516
-0.013057904
-0.013136273
-0.013151532
-0.013103168
-0.012991262
-0.012816495
-0.01258015
-0.012284082
-0.011930682
-0.011522821
-0.011063793
-0.010557227
-0.010007001
-0.0094171442
-0.008791727
-0.008134748
-0.0074500157
-0.006741028
-0.006010837
-0.0052619668
-0.0044960777
-0.0037147656
-0.0029153307
-0.0021090286
-0.0012435161
-0.00055930736
0.0018978724
0.0012580384
0.00060146764
-7.4242279e-05
-0.00075728181
-0.0014424296
-0.0021293545
-0.0028172438
-0.003503753
-0.0041860274
-0.0048612458
-0.005526525
-0.0061787663
-0.0068146494
-0.0074306883
-0.0080232734
-0.0085886988
-0.009123195
-0.0096229725
-0.010084272
-0.010503418
-0.010876878
-0.011201322
-0.011473682
-0.011691216
-0.011851564
-0.011952804
-0.0119935
-0.011972738
-0.011890158
-0.01174597
-0.011540951
-0.011276448
-0.010954338
-0.010576992
-0.010147218
-0.0096681842
-0.0091433392
-0.0085763118
-0.0079708038
-0.0073304721
-0.0066588064
-0.0059589896
-0.0052338072
-0.0044853154
-0.0037156011
-0.0029226943
-0.0021182969
-0.0012521826
-0.0005613933
0.0031005111
0.0024884538
0.001862016
0.0012204216
0.00057045574
-8.4618282e-05
-0.00074408449
-0.0014068795
-0.0020710298
-0.0027341987
-0.0033939751
-0.0040478197
-0.0046929796
-0.0053264844
-0.0059451765
-0.0065457372
-0.0071247062
-0.0076785068
-0.0082034788
-0.0086959192
-0.0091521271
-0.0095684536