/*--------------------------------*- C++ -*----------------------------------*\
  =========                 |
  \\      /  F ield         | OpenFOAM: The Open Source CFD Toolbox
   \\    /   O peration     | Website:  https://openfoam.org
    \\  /    A nd           | Version:  6
     \\/     M anipulation  |
\*---------------------------------------------------------------------------*/
FoamFile
{
    version     2.0;
    format      ascii;
    class       volScalarField;
    location    "240";
    object      p;
}
// * * * * * * * * * * * * * * * * * * * * * * * * * * * * * * * * * * * * * //

dimensions      [0 2 -2 0 0 0 0];

internalField   nonuniform List<scalar> 
9200
(
-0.377949
-0.36660251
-0.35650884
-0.34755955
-0.33881986
-0.33030363
-0.32208915
-0.3141439
-0.30640058
-0.29878726
-0.29123097
-0.28366268
-0.27602424
-0.26827563
-0.26040561
-0.25244947
-0.24448355
-0.23659566
-0.22981071
-0.22841074
-0.3958097
-0.38201204
-0.36997474
-0.35950566
-0.34939394
-0.33962103
-0.33025568
-0.32123463
-0.31245838
-0.30382858
-0.29525205
-0.28664659
-0.2779485
-0.26911861
-0.26014781
-0.25106107
-0.24188824
-0.23262903
-0.22396639
-0.21806626
-0.41408738
-0.39781571
-0.3838807
-0.37196227
-0.36053384
-0.34952624
-0.33898695
-0.32881426
-0.31887447
-0.30904675
-0.29922678
-0.2893325
-0.27931084
-0.26914085
-0.25883356
-0.24842762
-0.23796181
-0.22744508
-0.21727669
-0.20857171
-0.43234797
-0.41362141
-0.39785406
-0.38454789
-0.371823
-0.35954326
-0.34772701
-0.33623357
-0.32490303
-0.31360736
-0.30225194
-0.29077852
-0.27916842
-0.26744029
-0.25564342
-0.24384762
-0.23211943
-0.22049776
-0.20925003
-0.19911737
-0.44996156
-0.42888313
-0.41140017
-0.39678334
-0.38277169
-0.36915133
-0.35591133
-0.34288271
-0.32989983
-0.31685462
-0.3036918
-0.2904052
-0.27703358
-0.26365078
-0.25035229
-0.23724103
-0.22440706
-0.21190891
-0.19993477
-0.18899206
-0.46610364
-0.44288187
-0.42385895
-0.40802089
-0.39271592
-0.37765245
-0.36280273
-0.3479951
-0.33309234
-0.3180427
-0.3028631
-0.28762413
-0.27243568
-0.25742891
-0.24273796
-0.22848486
-0.21476426
-0.20163204
-0.18921418
-0.17784747
-0.47976909
-0.45473132
-0.43440575
-0.41744656
-0.40082797
-0.38419656
-0.36753553
-0.3507113
-0.33365955
-0.31642421
-0.29912264
-0.28191597
-0.26498437
-0.24850351
-0.2326258
-0.21746915
-0.20310922
-0.18957715
-0.17693977
-0.1653983
-0.4897941
-0.46340132
-0.44208378
-0.42412702
-0.406181
-0.38786434
-0.36921388
-0.35018631
-0.33083867
-0.31134551
-0.29194195
-0.27287928
-0.25439333
-0.23668093
-0.21988685
-0.20410091
-0.18936027
-0.17565682
-0.16299944
-0.15147538
-0.49483645
-0.46761663
-0.44560706
-0.42672652
-0.40739907
-0.38727747
-0.36651221
-0.34520747
-0.32358121
-0.30195417
-0.28067263
-0.26005544
-0.24036328
-0.22178287
-0.20442501
-0.18833284
-0.17349424
-0.15985758
-0.14737777
-0.13604454
-0.49354572
-0.46596035
-0.44342801
-0.42357972
-0.40276041
-0.38074054
-0.35784967
-0.33438533
-0.31074014
-0.2873642
-0.26467764
-0.24302146
-0.22263838
-0.20367206
-0.18617892
-0.17014678
-0.15551466
-0.1421931
-0.13009024
-0.11911096
-0.265067
-0.26974128
-0.27224969
-0.27300083
-0.27278672
-0.27179421
-0.27010476
-0.26780593
-0.2649699
-0.26165142
-0.25789453
-0.25373673
-0.24921114
-0.24434784
-0.23917507
-0.23372174
-0.22801872
-0.22208654
-0.21592423
-0.20961731
-0.26779964
-0.27205867
-0.27426034
-0.2747928
-0.27439561
-0.27324689
-0.27142617
-0.26901731
-0.26608896
-0.26269299
-0.25887105
-0.25465853
-0.25008666
-0.2451835
-0.23997471
-0.23448818
-0.22876223
-0.22281576
-0.21654147
-0.20991342
-0.27312912
-0.27657608
-0.27817976
-0.27828451
-0.27752839
-0.27607411
-0.2739977
-0.27137574
-0.26826993
-0.26472655
-0.26078239
-0.25646865
-0.25181275
-0.24683894
-0.24156803
-0.23602503
-0.23025969
-0.22428978
-0.21781618
-0.21058114
-0.28081554
-0.28309999
-0.28383814
-0.28331416
-0.28202513
-0.28011419
-0.27765338
-0.27470943
-0.27133438
-0.26756667
-0.26343623
-0.25896815
-0.25418435
-0.24910334
-0.24373914
-0.23811159
-0.2322824
-0.22627393
-0.2195407
-0.21145514
-0.29055662
-0.29138736
-0.29102394
-0.2896827
-0.28769181
-0.28517359
-0.28219694
-0.27881729
-0.27507527
-0.27100005
-0.26661335
-0.26193197
-0.2569703
-0.25173993
-0.24624677
-0.24050229
-0.23457616
-0.22850397
-0.22148103
-0.21236503
-0.30203859
-0.301186
-0.29951977
-0.29718922
-0.29433679
-0.2910654
-0.28744298
-0.28351394
-0.27930692
-0.27483945
-0.27012241
-0.26516338
-0.25996791
-0.25453919
-0.24887397
-0.24297242
-0.23690425
-0.2307244
-0.22339709
-0.21314384
-0.31498249
-0.31227088
-0.30913491
-0.30566403
-0.30180627
-0.29764832
-0.293261
-0.28867733
-0.28391126
-0.27896782
-0.27384642
-0.26854335
-0.26305358
-0.25737074
-0.25148249
-0.2453772
-0.23911738
-0.23278062
-0.22516316
-0.21378129
-0.32917233
-0.32446696
-0.31972749
-0.31499325
-0.3100136
-0.30486197
-0.2996124
-0.29428572
-0.2888811
-0.28338917
-0.27779499
-0.27208056
-0.26622725
-0.2602166
-0.25402662
-0.24763675
-0.24110674
-0.23456015
-0.22674446
-0.21446558
-0.34445503
-0.33764184
-0.33118712
-0.3250902
-0.31889444
-0.31265864
-0.30646201
-0.30031263
-0.29419207
-0.28807333
-0.28192355
-0.27570629
-0.26938383
-0.26291738
-0.25626253
-0.2493714
-0.24226829
-0.2350594
-0.2264874
-0.2130499
-0.36073173
-0.35168778
-0.34340161
-0.33583743
-0.32831917
-0.32089084
-0.31363669
-0.30654976
-0.29959154
-0.29271573
-0.28587122
-0.27900484
-0.27206425
-0.26499801
-0.25775031
-0.2502567
-0.24246007
-0.23415379
-0.22368702
-0.20801829
-0.2024666
-0.19351831
-0.18456507
-0.17567087
-0.16678201
-0.15794018
-0.14919888
-0.14059318
-0.13215234
-0.12390498
-0.1158769
-0.10809029
-0.10056427
-0.093315218
-0.086356711
-0.079699634
-0.073352282
-0.067320457
-0.061607571
-0.056214754
-0.051140979
-0.046383198
-0.041936499
-0.037794263
-0.03394835
-0.030389277
-0.027106419
-0.024088199
-0.021322282
-0.018795771
-0.016495392
-0.014407663
-0.012519067
-0.010816204
-0.0092859322
-0.0079154992
-0.0066926718
-0.0056058358
-0.0046441742
-0.0037975905
-0.0030575286
-0.0024149848
-0.0018676889
-0.0013989985
-0.0010444964
-0.00069461794
-0.00068792573
-8.0128576e-05
-0.001706057
0.0024523294
-0.20347663
-0.19413109
-0.1850688
-0.17618894
-0.16728206
-0.15841004
-0.14964432
-0.14101635
-0.13255294
-0.12428326
-0.11623338
-0.10842538
-0.10087838
-0.093608807
-0.086630316
-0.079953853
-0.073587776
-0.067537948
-0.061807832
-0.056398601
-0.051309257
-0.046536778
-0.04207626
-0.037921087
-0.034063113
-0.030492841
-0.027199624
-0.024171859
-0.02139718
-0.018862655
-0.01655497
-0.014460604
-0.012565999
-0.01085771
-0.0093225535
-0.007947734
-0.006720976
-0.0056306239
-0.0046658201
-0.0038164286
-0.0030738536
-0.0024290547
-0.0018797047
-0.0014091694
-0.0010527522
-0.00070153895
-0.00069132822
-8.5944586e-05
-0.0016914988
0.002423742
-0.20559532
-0.19539915
-0.18611943
-0.17730825
-0.16837777
-0.15944507
-0.15063173
-0.14195974
-0.13344931
-0.12513172
-0.1170343
-0.109179
-0.10158505
-0.094269217
-0.087245442
-0.08052489
-0.074116124
-0.068025196
-0.062255721
-0.056808992
-0.051684105
-0.046878096
-0.042386097
-0.038201502
-0.034316149
-0.03072051
-0.027403887
-0.024354611
-0.021560243
-0.019007763
-0.016683764
-0.014574629
-0.012666697
-0.010946421
-0.0094005149
-0.0080160809
-0.0067807437
-0.0056827502
-0.0047111483
-0.0038557104
-0.0031077499
-0.0024581417
-0.0019044405
-0.001430006
-0.0010696139
-0.00071555094
-0.00069831834
-9.7434343e-05
-0.001662922
0.0023671813
-0.20866393
-0.19709106
-0.18749038
-0.17887816
-0.16995829
-0.1609489
-0.15208142
-0.14336049
-0.13479102
-0.12640941
-0.11824667
-0.11032481
-0.10266335
-0.095279917
-0.08818914
-0.081402712
-0.074929658
-0.068776433
-0.06294699
-0.057442888
-0.052263427
-0.047405791
-0.042865208
-0.038635121
-0.034707375
-0.031072415
-0.027719481
-0.024636819
-0.021811881
-0.019231524
-0.016882201
-0.014750147
-0.012821545
-0.01108269
-0.0095201354
-0.0081208254
-0.006872228
-0.0057624375
-0.004780354
-0.0039156057
-0.0031593651
-0.0025023735
-0.0019420057
-0.0014616024
-0.0010951619
-0.00073671694
-0.00070899503
-0.00011454991
-0.0016210746
0.0022838714
-0.21245581
-0.19893632
-0.18891243
-0.18070099
-0.1718771
-0.16279369
-0.15388317
-0.14512961
-0.13650654
-0.12805756
-0.1198222
-0.11182357
-0.10408165
-0.096615491
-0.089441134
-0.082571293
-0.07601584
-0.069781969
-0.063874253
-0.058294753
-0.053043162
-0.048116961
-0.043511592
-0.039220634
-0.035236002
-0.031548148
-0.028146274
-0.025018541
-0.022152281
-0.019534202
-0.017150587
-0.014987479
-0.013030862
-0.011266824
-0.0096817031
-0.0082622325
-0.0069956697
-0.0058699027
-0.004873631
-0.0039962874
-0.0032288526
-0.0025618858
-0.0019925201
-0.0015040634
-0.0011294918
-0.0007651088
-0.00072350425
-0.00013719035
-0.0015671001
0.0021756977
-0.21662369
-0.20065444
-0.19011645
-0.18254357
-0.17396189
-0.16483609
-0.15590487
-0.14715312
-0.13850316
-0.1300002
-0.12169755
-0.11362284
-0.105797
-0.098240998
-0.090973089
-0.084007782
-0.077356364
-0.071027233
-0.06502599
-0.05935554
-0.054016255
-0.049006147
-0.044321057
-0.039954847
-0.035899614
-0.0321459
-0.02868292
-0.025498785
-0.022580717
-0.019915272
-0.017488544
-0.015286359
-0.013294465
-0.011498697
-0.0098851369
-0.0084402541
-0.0071510454
-0.0060051411
-0.0049909893
-0.0040977766
-0.0033162422
-0.0026367154
-0.0020560253
-0.0015574351
-0.001172658
-0.00080076923
-0.00074200081
-0.0001652143
-0.0015024464
0.0020451143
-0.22077001
-0.20206385
-0.19089074
-0.18412821
-0.17601216
-0.16694912
-0.15803146
-0.14931881
-0.14068502
-0.13215945
-0.12380785
-0.1156677
-0.10776329
-0.10011792
-0.092752792
-0.085685183
-0.078928585
-0.072493216
-0.066386222
-0.060611798
-0.055171367
-0.050063773
-0.045285504
-0.040830901
-0.036692393
-0.03286073
-0.029325223
-0.026073981
-0.023094154
-0.020372155
-0.017893884
-0.015644935
-0.013610789
-0.011776996
-0.010129337
-0.0086539768
-0.0073376028
-0.0061675397
-0.0051319361
-0.0042196843
-0.0034212336
-0.0027266381
-0.0021323619
-0.0016216141
-0.0012246098
-0.00084367714
-0.00076462153
-0.00019847089
-0.0014287628
0.0018950105
-0.22463393
-0.20356018
-0.19145962
-0.18526748
-0.17781365
-0.1690454
-0.16021934
-0.15157048
-0.14299015
-0.1344797
-0.12610393
-0.11791297
-0.10993886
-0.10220842
-0.094746208
-0.087573014
-0.080705339
-0.074155841
-0.067933714
-0.062044882
-0.056492187
-0.051275623
-0.04639258
-0.041838092
-0.037605089
-0.033684661
-0.030066314
-0.026738235
-0.023687542
-0.020900534
-0.018362929
-0.016060081
-0.01397719
-0.012099494
-0.010412443
-0.0089018571
-0.0075540745
-0.0063560715
-0.0052956528
-0.004361372
-0.0035433438
-0.0028313043
-0.0022212928
-0.0016964603
-0.0012852927
-0.00089383489
-0.00079155564
-0.00023686837
-0.0013478494
0.001728676
-0.22587326
-0.20538809
-0.19251862
-0.18589768
-0.17893126
-0.17074462
-0.16219503
-0.15367528
-0.14520196
-0.13676856
-0.1284227
-0.12022226
-0.11221039
-0.10441972
-0.096878797
-0.089612497
-0.082641188
-0.075980802
-0.069643315
-0.063637039
-0.057966843
-0.052634403
-0.047638479
-0.042975197
-0.038638328
-0.034619581
-0.030908887
-0.027494684
-0.024364202
-0.021503725
-0.018898856
-0.016534752
-0.014396352
-0.012468585
-0.010736555
-0.0091857143
-0.0078020204
-0.0065720625
-0.0054832591
-0.00452378
-0.0036833578
-0.0029513645
-0.0023233533
-0.0017824024
-0.0013550631
-0.00095146536
-0.00082319039
-0.00028011556
-0.0012618642
0.0015503799
-0.21601263
-0.20463418
-0.19363635
-0.18554898
-0.17849321
-0.17108082
-0.16313746
-0.1549836
-0.14679817
-0.13860722
-0.13043847
-0.12234941
-0.11439553
-0.10661977
-0.099057947
-0.091741624
-0.084697466
-0.07794694
-0.071506742
-0.065389228
-0.059602697
-0.054151695
-0.049037342
-0.044257675
-0.039807976
-0.03568111
-0.031867862
-0.028357261
-0.025136899
-0.022193238
-0.019511897
-0.017077925
-0.014876052
-0.012890918
-0.011107282
-0.0095102086
-0.0080852442
-0.0068185501
-0.0056971128
-0.004708667
-0.0038425113
-0.003087599
-0.0024389394
-0.0018794923
-0.0014337515
-0.001016044
-0.0008593358
-0.00032655466
-0.0011733672
0.0013656246
-0.19387467
-0.1985818
-0.19330865
-0.18440443
-0.1769019
-0.16989422
-0.16239411
-0.15453709
-0.14658902
-0.13861309
-0.13062888
-0.12268927
-0.11485355
-0.10716905
-0.099674776
-0.092405223
-0.085390025
-0.078653438
-0.072214681
-0.066088369
-0.060284828
-0.054810393
-0.049667751
-0.044856291
-0.040372454
-0.036210088
-0.032360793
-0.028814269
-0.025558643
-0.022580798
-0.019866669
-0.017401534
-0.01517027
-0.013157604
-0.011348322
-0.0097274749
-0.0082805536
-0.0069936356
-0.0058535954
-0.00484804
-0.00396609
-0.0031965838
-0.0025340681
-0.0019619392
-0.0015019309
-0.0010746829
-0.00089046186
-0.00037295505
-0.0010829392
0.0011823135
-0.18332588
-0.18914685
-0.18567397
-0.17693537
-0.16973263
-0.16347668
-0.15677704
-0.1496339
-0.14234319
-0.13497994
-0.1275539
-0.12011364
-0.11272088
-0.10542667
-0.098273569
-0.091299887
-0.084539303
-0.078020082
-0.071765279
-0.065793148
-0.060117431
-0.054747638
-0.049689383
-0.044944735
-0.040512575
-0.036388955
-0.032567459
-0.029039553
-0.025794938
-0.022821874
-0.020107505
-0.017638151
-0.015399588
-0.013377299
-0.011556712
-0.0099234035
-0.0084632936
-0.007162801
-0.0060090561
-0.004989868
-0.0040944288
-0.0033117583
-0.0026359607
-0.0020514495
-0.0015762448
-0.0011399583
-0.00092403857
-0.00042746762
-0.00098207471
0.00098467806
-0.17458778
-0.17780929
-0.17553233
-0.16851177
-0.16215944
-0.1565974
-0.15066454
-0.14425145
-0.13762476
-0.13087961
-0.12402787
-0.11711193
-0.11019228
-0.10332182
-0.09654521
-0.089903146
-0.083432215
-0.077163898
-0.071124543
-0.065335689
-0.059814297
-0.054572981
-0.049620299
-0.04496109
-0.040596805
-0.036525871
-0.032744035
-0.02924473
-0.026019418
-0.023057933
-0.020348807
-0.017879577
-0.015637071
-0.01360768
-0.011777597
-0.010133041
-0.0086604608
-0.0073467035
-0.0061792264
-0.0051461023
-0.0042366355
-0.003440077
-0.002750062
-0.002152151
-0.0016602797
-0.0012139423
-0.00096305722
-0.00048886144
-0.00087372397
0.00076820531
-0.16490972
-0.16552252
-0.16369116
-0.15874668
-0.15362428
-0.14880487
-0.14366312
-0.13806174
-0.13217809
-0.12611303
-0.11989421
-0.11356207
-0.10717374
-0.10078275
-0.094435612
-0.088175013
-0.082040033
-0.076065117
-0.070279809
-0.064708927
-0.059372734
-0.0542871
-0.049463733
-0.044910474
-0.040631607
-0.036628197
-0.03289843
-0.029437964
-0.026240282
-0.02329703
-0.020598351
-0.018133205
-0.015889661
-0.013855182
-0.012016876
-0.010361735
-0.0088768475
-0.0075495845
-0.0063678101
-0.005319925
-0.0043953964
-0.0035837412
-0.0028781468
-0.002265324
-0.001755103
-0.0012968386
-0.001008757
-0.00055461449
-0.00076544564
0.00054295485
-0.15434063
-0.15307353
-0.15126421
-0.1480346
-0.14420542
-0.14019086
-0.13584613
-0.1310887
-0.12600202
-0.12066915
-0.11513321
-0.10943723
-0.10363419
-0.097776494
-0.091911573
-0.086083377
-0.080332732
-0.074696482
-0.069206999
-0.063892173
-0.05877548
-0.053876063
-0.049208886
-0.044784964
-0.04061163
-0.036692837
-0.033029471
-0.029619692
-0.026459271
-0.023541931
-0.020859677
-0.018403124
-0.016161798
-0.014124429
-0.012279216
-0.010614078
-0.0091168786
-0.0077756268
-0.0065786916
-0.0055148801
-0.0045738879
-0.0037455351
-0.0030226155
-0.0023929329
-0.0018623891
-0.001389682
-0.0010626375
-0.00062409744
-0.00066327765
0.00031703119
-0.14255415
-0.14049523
-0.13880045
-0.13684516
-0.13418683
-0.13100826
-0.12745065
-0.12351786
-0.11923198
-0.11464886
-0.10981939
-0.10478828
-0.099603939
-0.094316404
-0.088972951
-0.083617749
-0.078292264
-0.073034747
-0.067879636
-0.062857321
-0.05799407
-0.053312019
-0.048829235
-0.04455986
-0.040514311
-0.03669953
-0.033119255
-0.029774333
-0.026663029
-0.02378136
-0.021123417
-0.018681686
-0.016447359
-0.01441063
-0.012560971
-0.010887393
-0.0093786824
-0.0080236169
-0.0068111826
-0.0057306852
-0.0047721313
-0.0039256881
-0.0031838403
-0.002535394
-0.0019826536
-0.0014927888
-0.0011256808
-0.000696869
-0.00057321239
9.9086872e-05
-0.12986017
-0.12793042
-0.12658373
-0.12554053
-0.12384584
-0.12147692
-0.11867962
-0.11552548
-0.11201135
-0.10816678
-0.10404171
-0.099682531
-0.095132189
-0.090435607
-0.085638695
-0.080785097
-0.075915923
-0.071069688
-0.06628189
-0.061584602
-0.057006231
-0.052571389
-0.048300865
-0.044211667
-0.040317149
-0.036627177
-0.033148359
-0.029884293
-0.026835858
-0.024001509
-0.021377589
-0.018958634
-0.016737684
-0.014706578
-0.012856235
-0.011176921
-0.0096584962
-0.0082906434
-0.0070630873
-0.0059657351
-0.0049889987
-0.0041234457
-0.0033613604
-0.00269244
-0.002115852
-0.0016060867
-0.0011985622
-0.00077251375
-0.00050115014
-0.0001015682
-0.11697445
-0.11562489
-0.11476686
-0.11437947
-0.11344033
-0.11180663
-0.10972011
-0.10728313
-0.10448898
-0.10134947
-0.097906707
-0.094205016
-0.090284239
-0.086183679
-0.081944412
-0.077608349
-0.073215622
-0.068804077
-0.064409193
-0.060063753
-0.055797478
-0.051636767
-0.047604563
-0.043720301
-0.039999939
-0.036456048
-0.033097964
-0.029931988
-0.026961612
-0.024187787
-0.021609198
-0.019222556
-0.017022886
-0.01500382
-0.013157877
-0.011476727
-0.0099514516
-0.0085727725
-0.0073312782
-0.0062175857
-0.0052226162
-0.0043373984
-0.0035541449
-0.0028633278
-0.0022615296
-0.0017292479
-0.001281657
-0.00085082169
-0.00045211095
-0.00027608428
-0.10444015
-0.10375713
-0.10341497
-0.1035216
-0.10317052
-0.10217412
-0.10072918
-0.098939416
-0.09680136
-0.09431732
-0.091519624
-0.088447246
-0.085135527
-0.081619433
-0.077935456
-0.074121136
-0.070214196
-0.066251113
-0.062266511
-0.058292935
-0.054360521
-0.050496667
-0.046725787
-0.043069166
-0.039544896
-0.036167886
-0.032949934
-0.02989985
-0.027023636
-0.02432469
-0.02180405
-0.019460644
-0.017291566
-0.015292344
-0.01345721
-0.01177937
-0.01025125
-0.0088647373
-0.0076114049
-0.0064826884
-0.0054701254
-0.0045652749
-0.0037604173
-0.0030466971
-0.0024187073
-0.0018616135
-0.0013749262
-0.00093179682
-0.00042945814
-0.00041731882
-0.092542884
-0.092445918
-0.09257218
-0.093066458
-0.093176718
-0.092715168
-0.091830874
-0.090613787
-0.089062729
-0.087175247
-0.084974587
-0.082492699
-0.079759659
-0.076805338
-0.073661768
-0.070362362
-0.066940885
-0.06343114
-0.05986614
-0.056277419
-0.052694691
-0.049145545
-0.045655132
-0.04224594
-0.038937638
-0.035747004
-0.032687916
-0.029771407
-0.027005769
-0.024396708
-0.021947531
-0.019659357
-0.01753136
-0.01556101
-0.013744329
-0.012076143
-0.010550327
-0.0091600402
-0.0078979467
-0.0067564038
-0.0057276708
-0.0048039105
-0.0039776147
-0.0032405244
-0.0025858364
-0.0020021417
-0.0014778379
-0.0010155506
-0.00043431784
-0.00052096482
-0.081422979
-0.081782008
-0.082290694
-0.083087565
-0.083558664
-0.08353422
-0.083125229
-0.082403802
-0.081368341
-0.080013479
-0.078354812
-0.076416931
-0.074224145
-0.071801052
-0.069174582
-0.066373766
-0.063428515
-0.060369024
-0.057225609
-0.054028048
-0.050804922
-0.047583258
-0.044388221
-0.041242827
-0.038167722
-0.035181023
-0.032298238
-0.029532248
-0.026893342
-0.024389306
-0.022025553
-0.019805295
-0.017729728
-0.015798257
-0.014008713
-0.012357593
-0.010840287
-0.0094513055
-0.0081844947
-0.0070332226
-0.0059905675
-0.0050493714
-0.0042024768
-0.0034421796
-0.0027608345
-0.0021494019
-0.0015893393
-0.0011021465
-0.00046528829
-0.0005863857
-0.071140897
-0.071827868
-0.07262292
-0.073644829
-0.074391095
-0.074713781
-0.074695762
-0.07439256
-0.073800487
-0.072911758
-0.071735644
-0.070289808
-0.068592691
-0.066663574
-0.064524198
-0.062198729
-0.059712879
-0.057093167
-0.054366568
-0.051560242
-0.048700946
-0.045814483
-0.042925348
-0.040056431
-0.037228735
-0.034461158
-0.031770343
-0.02917059
-0.026673823
-0.024289618
-0.022025269
-0.019885907
-0.017874642
-0.015992741
-0.01423982
-0.012614051
-0.011112368
-0.0097306871
-0.0084640988
-0.0073070557
-0.0062535398
-0.0052971458
-0.0044311975
-0.0036485377
-0.0029411682
-0.0023015986
-0.0017078698
-0.0011914337
-0.00051854243
-0.00061690676
-0.061708564
-0.062616287
-0.063609031
-0.064784967
-0.065730971
-0.06631959
-0.066612837
-0.066652497
-0.066432428
-0.0659427
-0.065187361
-0.064177941
-0.06292731
-0.06144958
-0.059761405
-0.057882035
-0.055832643
-0.053635752
-0.05131481
-0.048893846
-0.046397104
-0.043848538
-0.041271362
-0.038687712
-0.036118342
-0.033582363
-0.031097031
-0.028677599
-0.02633722
-0.024086913
-0.021935571
-0.01989002
-0.017955114
-0.016133865
-0.014427595
-0.012836112
-0.011357893
-0.0099902732
-0.0087296293
-0.0075715518
-0.0065109955
-0.005542376
-0.0046596153
-0.0038561274
-0.0031239669
-0.0024566203
-0.0018314194
-0.0012829151
-0.00058836487
-0.00061937392
-0.053111191
-0.054155521
-0.055271451
-0.056539457
-0.057619512
-0.058402341
-0.058934145
-0.059245821
-0.059329183
-0.059172608
-0.058775928
-0.058145481
-0.057289154
-0.056216275
-0.054938696
-0.053470907
-0.051829537
-0.050032895
-0.048100641
-0.046053432
-0.043912558
-0.041699561
-0.039435813
-0.037142127
-0.034838436
-0.032543501
-0.03027466
-0.028047627
-0.025876346
-0.023772893
-0.021747427
-0.019808197
-0.017961579
-0.016212162
-0.014562854
-0.01301502
-0.011568633
-0.010222436
-0.0089741036
-0.0078203966
-0.0067572945
-0.0057800938
-0.0048834168
-0.0040612959
-0.0033061569
-0.0026121148
-0.0019576347
-0.0013756907
-0.00066805423
-0.00060296633
-0.045317991
-0.046434644
-0.047614521
-0.048923588
-0.050082444
-0.050997892
-0.051704072
-0.052223438
-0.052546455
-0.052660422
-0.052561944
-0.052253157
-0.051737736
-0.051020804
-0.05010988
-0.049015037
-0.047748553
-0.046324572
-0.044758845
-0.043068461
-0.04127151
-0.039386739
-0.037433201
-0.035429889
-0.033395391
-0.031347588
-0.02930338
-0.027278448
-0.025287062
-0.023341934
-0.021454123
-0.019632981
-0.017886142
-0.016219556
-0.014637551
-0.013142927
-0.011737071
-0.010420088
-0.0091909348
-0.0080475499
-0.0069869714
-0.0060054249
-0.0050983186
-0.0042603642
-0.0034845929
-0.0027655811
-0.0020839639
-0.0014684944
-0.00075100449
-0.00057748449
-0.038287583
-0.039428759
-0.040627477
-0.041937848
-0.043130951
-0.044127841
-0.044953556
-0.045624139
-0.046129414
-0.046456256
-0.046598999
-0.046556566
-0.046329262
-0.045918722
-0.045328735
-0.044565459
-0.043637192
-0.042554141
-0.041328245
-0.039972981
-0.038503104
-0.036934345
-0.035283111
-0.033566167
-0.031800313
-0.030002077
-0.028187433
-0.026371544
-0.024568542
-0.022791341
-0.021051501
-0.019359122
-0.017722789
-0.016149556
-0.01464496
-0.013213074
-0.011856577
-0.010576856
-0.0093740982
-0.0082474073
-0.0071948901
-0.0062137355
-0.0053002037
-0.0044497503
-0.0036561705
-0.0029144647
-0.0022078205
-0.0015598074
-0.00083169752
-0.00055154427
-0.031972534
-0.033103938
-0.034288553
-0.035570782
-0.03676371
-0.037800984
-0.038700877
-0.039474677
-0.040112178
-0.040600421
-0.040932334
-0.041104558
-0.041114874
-0.04096219
-0.040647261
-0.040172932
-0.039544025
-0.038767192
-0.037850825
-0.036804926
-0.035640926
-0.034371461
-0.033010109
-0.031571134
-0.030069203
-0.028519098
-0.026935439
-0.025332428
-0.023723611
-0.022121673
-0.020538261
-0.018983847
-0.01746763
-0.01599747
-0.014579866
-0.013219955
-0.011921552
-0.010687201
-0.0095182462
-0.0084149059
-0.0073763436
-0.0064007258
-0.0054852094
-0.0046260519
-0.0038179093
-0.0030562468
-0.0023267372
-0.0016480118
-0.00090634014
-0.00053118635
-0.026322789
-0.027420959
-0.028568572
-0.029802056
-0.030969416
-0.032015346
-0.032953148
-0.03379066
-0.034518116
-0.035123195
-0.035598153
-0.035938165
-0.03613928
-0.036198419
-0.036114012
-0.035886257
-0.035517079
-0.035010072
-0.034370466
-0.033605073
-0.032722172
-0.031731359
-0.030643349
-0.02946977
-0.02822293
-0.026915573
-0.025560626
-0.024170947
-0.022759095
-0.021337115
-0.019916339
-0.018507229
-0.017119237
-0.01576071
-0.014438823
-0.01315954
-0.011927609
-0.01074658
-0.0096188319
-0.0085456247
-0.0075271352
-0.0065624978
-0.005649786
-0.0047861019
-0.0039670099
-0.0031885185
-0.0024384791
-0.0017315344
-0.00097298865
-0.00051928982
-0.021287973
-0.022337957
-0.023433747
-0.024605186
-0.025729304
-0.026760404
-0.02770816
-0.028577945
-0.029360757
-0.030045254
-0.030623586
-0.031090144
-0.031439923
-0.031668537
-0.031772765
-0.031750811
-0.03160232
-0.031328376
-0.030931528
-0.030415784
-0.029786568
-0.029050627
-0.028215908
-0.027291405
-0.026286975
-0.025213149
-0.024080916
-0.022901498
-0.02168613
-0.020445855
-0.01919132
-0.017932604
-0.016679058
-0.015439182
-0.014220519
-0.013029593
-0.011871855
-0.010751666
-0.0096722969
-0.0086359337
-0.0076436947
-0.0066956441
-0.0057907646
-0.0049270225
-0.0041009041
-0.0033090447
-0.0025411052
-0.0018089483
-0.0010311927
-0.00051588137
-0.016819269
-0.01781265
-0.018848136
-0.019950069
-0.021019635
-0.022019441
-0.022956503
-0.023834451
-0.024645234
-0.025378692
-0.026027286
-0.026585144
-0.027046762
-0.027407018
-0.027661639
-0.027807441
-0.027842382
-0.027765602
-0.027577481
-0.027279681
-0.026875151
-0.026368092
-0.025763888
-0.025069019
-0.024290929
-0.023437881
-0.022518794
-0.021543054
-0.020520326
-0.019460358
-0.018372793
-0.01726699
-0.016151862
-0.015035732
-0.013926207
-0.01283008
-0.011753253
-0.010700685
-0.0096763513
-0.0086832268
-0.0077232664
-0.0067973958
-0.0059054703
-0.0050463145
-0.0042173239
-0.0034158319
-0.0026329885
-0.0018790239
-0.0010813722
-0.00051909127
-0.012870486
-0.013803762
-0.014775322
-0.015804859
-0.016813691
-0.017771568
-0.018683536
-0.019551984
-0.020369892
-0.021128372
-0.021820464
-0.02244041
-0.022982622
-0.023441699
-0.023812809
-0.024091905
-0.024275797
-0.024362211
-0.024349874
-0.024238577
-0.024029223
-0.023723834
-0.023325534
-0.022838505
-0.022267917
-0.021619829
-0.020901069
-0.020119098
-0.019281852
-0.018397578
-0.017474664
-0.016521472
-0.01554618
-0.014556629
-0.01356019
-0.012563643
-0.01157308
-0.01059382
-0.0096303441
-0.0086862453
-0.0077641836
-0.0068658498
-0.0059919067
-0.0051420031
-0.004314413
-0.0035072163
-0.0027128252
-0.0019407496
-0.0011242122
-0.00052629996
-0.0093996108
-0.010272815
-0.011180404
-0.01213807
-0.01308395
-0.01399391
-0.014871512
-0.015718245
-0.016528111
-0.017293496
-0.018008167
-0.018666725
-0.01926379
-0.019794016
-0.020252394
-0.020634441
-0.020936272
-0.021154672
-0.021287186
-0.021332199
-0.021289005
-0.021157849
-0.020939941
-0.020637459
-0.020253523
-0.019792142
-0.019258139
-0.018657056
-0.017995047
-0.017278739
-0.016515098
-0.01571128
-0.014874487
-0.01401182
-0.013130146
-0.012235967
-0.011335304
-0.010433601
-0.0095356295
-0.0086454174
-0.0077661753
-0.0069002376
-0.006048984
-0.0052128286
-0.0043908764
-0.0035819757
-0.0027796618
-0.0019933531
-0.0011602859
-0.00053505035
-0.0063686412
-0.0071844395
-0.0080307092
-0.0089196742
-0.0098035336
-0.010663368
-0.011501592
-0.012319018
-0.013110605
-0.013869947
-0.014591596
-0.015270646
-0.015902109
-0.016480914
-0.017002151
-0.017461223
-0.017853912
-0.018176452
-0.018425615
-0.018598799
-0.018694105
-0.018710395
-0.018647338
-0.01850544
-0.01828605
-0.017991353
-0.017624332
-0.017188715
-0.016688906
-0.01612989
-0.015517131
-0.014856453
-0.01415391
-0.013415667
-0.012647864
-0.011856492
-0.011047273
-0.010225547
-0.0093961673
-0.0085634024
-0.0077308487
-0.0069013451
-0.0060768772
-0.005258543
-0.0044462154
-0.0036395046
-0.0028329865
-0.0020363643
-0.0011899684
-0.00054352936
-0.0037453678
-0.0045079663
-0.0052972408
-0.006122346
-0.0069472377
-0.007757429
-0.0085544246
-0.0093385066
-0.01010549
-0.010850071
-0.011567571
-0.012253635
-0.012903756
-0.013513271
-0.014077546
-0.014592091
-0.015052623
-0.015455126
-0.015795932
-0.016071805
-0.016280017
-0.016418416
-0.016485488
-0.016480402
-0.016403048
-0.016254054
-0.016034783
-0.015747324
-0.015394446
-0.014979553
-0.014506611
-0.013980062
-0.013404727
-0.0127857
-0.012128235
-0.011437631
-0.010719116
-0.0099777271
-0.0092182038
-0.0084448745
-0.0076615523
-0.0068714344
-0.006076988
-0.0052798967
-0.004480724
-0.0036798082
-0.0028727053
-0.0020695928
-0.0012134599
-0.00055061036
-0.0015041206
-0.0022193218
-0.0029575537
-0.0037253456
-0.0044964167
-0.0052599933
-0.0060168418
-0.0067668121
-0.0075064578
-0.0082314395
-0.008937792
-0.009621705
-0.010279176
-0.010906008
-0.011497933
-0.012050709
-0.012560165
-0.013022252
-0.013433114
-0.013789159
-0.014087134
-0.014324193
-0.014497962
-0.014606598
-0.014648837
-0.01462404
-0.014532212
-0.014374017
-0.014150774
-0.013864435
-0.01351755
-0.013113218
-0.012655014
-0.012146912
-0.011593195
-0.010998352
-0.010366977
-0.0097036544
-0.009012848
-0.0082987853
-0.0075653432
-0.0068159339
-0.0060533787
-0.005279838
-0.0044964745
-0.003704295
-0.002899771
-0.002093617
-0.0012312673
-0.00055592065
0.00037920688
-0.00029441789
-0.00098781653
-0.0017051418
-0.0024281668
-0.003149226
-0.0038684844
-0.0045854261
-0.0052972168
-0.0060003374
-0.0066914488
-0.0073672413
-0.0080241944
-0.0086585708
-0.0092665052
-0.0098440674
-0.010387299
-0.010892258
-0.011355068
-0.011771989
-0.012139474
-0.012454237
-0.012713317
-0.012914139
-0.013054576
-0.013132996
-0.013148311
-0.013100005
-0.012988161
-0.012813461
-0.012577188
-0.012281195
-0.011927876
-0.011520103
-0.011061167
-0.010554701
-0.010004582
-0.0094148397
-0.0087895455
-0.0081326986
-0.0074481083
-0.0067392732
-0.006009246
-0.0052605512
-0.0044948503
-0.003713738
-0.0029145196
-0.002108428
-0.0012432066
-0.00055896387
0.0019017984
0.0012619521
0.00060536853
-7.0354793e-05
-0.00075340856
-0.0014385714
-0.0021255125
-0.0028134188
-0.0034999461
-0.0041822397
-0.0048574785
-0.0055227795
-0.0061750438
-0.0068109514
-0.0074270165
-0.0080196293
-0.0085850842
-0.0091196119
-0.0096194228
-0.010080758
-0.010499942
-0.010873442
-0.011197929
-0.011470335
-0.011687917
-0.011848317
-0.011949613
-0.011990368
-0.011969669
-0.011887157
-0.01174304
-0.011538099
-0.011273677
-0.010951654
-0.010574403
-0.010144729
-0.0096658027
-0.0091410729
-0.0085741689
-0.0079687932
-0.0073286032
-0.0066570893
-0.005957435
-0.0052324262
-0.0044841197
-0.0037146015
-0.0029219063
-0.0021177136
-0.0012518823
-0.00056105478
0.0031044159
0.0024923464
0.0018658956
0.0012242877
0.00057430747
-8.0781781e-05
-0.00074026419
-0.0014030764
-0.0020672449
-0.0027304331
-0.0033902301
-0.0040440965
-0.0046892797
-0.0053228091
-0.0059415274
-0.006542116
-0.0071211147
-0.0076749469
-0.0081999525
-0.0086924287
-0.0091486747
-0.0095650418