/*--------------------------------*- C++ -*----------------------------------*\
  =========                 |
  \\      /  F ield         | OpenFOAM: The Open Source CFD Toolbox
   \\    /   O peration     | Website:  https://openfoam.org
    \\  /    A nd           | Version:  6
     \\/     M anipulation  |
\*---------------------------------------------------------------------------*/
FoamFile
{
    version     2.0;
    format      ascii;
    class       surfaceScalarField;
    location    "53";
    object      phi;
}
// * * * * * * * * * * * * * * * * * * * * * * * * * * * * * * * * * * * * * //

dimensions      [0 3 -1 0 0 0 0];

internalField   nonuniform List<scalar> 
18180
(
0.00031967382
-0.00016503194
-0.00015464178
0.001312994
-0.0013745837
0.00038126366
0.0030415146
-0.0033491564
0.0016206358
0.0055653648
-0.0060013438
0.0034774937
0.0089429691
-0.0092762322
0.0058986281
0.013229037
-0.013130297
0.0088442298
0.018471879
-0.017525971
0.012283129
0.024710413
-0.022428898
0.016190364
0.031970992
-0.027804795
0.020544217
0.040264309
-0.03361683
0.025323513
0.0495827
-0.039823857
0.030505466
0.059898218
-0.04637951
0.036063993
0.071161874
-0.053232112
0.041968456
0.083304521
-0.060325459
0.048182812
0.096239971
-0.067600543
0.054665092
0.10987088
-0.074998347
0.061367435
0.12409683
-0.08246354
0.068237589
0.13882959
-0.089948789
0.075216036
0.15406676
-0.097436683
0.082199511
-0.10492478
0.088985701
0.17000584
0.00039857258
-0.00056360444
0.0016138494
-0.0025898605
0.003698917
-0.0054342238
0.0067045999
-0.0090070267
0.010677584
-0.013249216
0.015656728
-0.018109441
0.021669025
-0.023538268
0.028725619
-0.029485492
0.036818154
-0.03589733
0.045915871
-0.042714546
0.05596388
-0.049871867
0.066882974
-0.057298604
0.078571215
-0.064920353
0.090907392
-0.072661635
0.10375613
-0.080449278
0.11697403
-0.088216254
0.13041596
-0.095905465
0.1439418
-0.10347463
0.15741547
-0.11091035
-0.1181434
0.17063409
0.00048182357
-0.0010454279
0.0019233704
-0.0040314072
0.0043628812
-0.0078737345
0.0078349081
-0.012479054
0.012366046
-0.017780355
0.017969498
-0.023712892
0.024639967
-0.030208737
0.032349375
-0.0371949
0.041043829
-0.044591784
0.050642339
-0.052313056
0.061037659
-0.060267188
0.07209942
-0.068360365
0.083679416
-0.076500349
0.095618645
-0.084600864
0.10775534
-0.092585978
0.11993296
-0.10039387
0.13200683
-0.10797934
0.14384767
-0.11531547
0.15533389
-0.12239658
-0.1291731
0.16636359
0.00056747985
-0.0016129077
0.002232948
-0.0056968753
0.0050115828
-0.010652369
0.0089130518
-0.016380523
0.013934206
-0.022801509
0.020052178
-0.029830864
0.02721903
-0.03737559
0.035358423
-0.045334292
0.044364747
-0.053598107
0.054105105
-0.062053414
0.064424172
-0.070586254
0.075151592
-0.079087785
0.08611122
-0.087459977
0.097131199
-0.095620843
0.10805373
-0.10350851
0.11874339
-0.11108353
0.12909315
-0.1183291
0.13902694
-0.12524926
0.14849644
-0.13186608
-0.1381794
0.15750274
0.00065228079
-0.0022651884
0.0025295602
-0.0075741546
0.005614869
-0.013737678
0.0098835989
-0.020649252
0.0152931
-0.02821101
0.021775141
-0.036312904
0.029231637
-0.044832086
0.037533848
-0.053636504
0.04652527
-0.062589529
0.056028093
-0.071556238
0.065852611
-0.080410772
0.075808482
-0.089043656
0.085716505
-0.097368
0.095419446
-0.10532378
0.10479064
-0.1128797
0.11373952
-0.12003241
0.12221366
-0.12680324
0.13019756
-0.13323315
0.13770809
-0.13937662
-0.14527787
0.14480657
0.00073207872
-0.002997267
0.0027973648
-0.0096394405
0.0061377072
-0.01707802
0.01068526
-0.025196805
0.016349588
-0.033875338
0.023010832
-0.042974149
0.030518119
-0.052339373
0.038692786
-0.061811171
0.047336057
-0.071232799
0.056240169
-0.08046035
0.065201471
-0.089372074
0.074033656
-0.097875841
0.08257934
-0.10591368
0.090718537
-0.11346298
0.098373102
-0.12053427
0.10550698
-0.12716628
0.11212274
-0.133419
0.11825547
-0.13936588
0.12396518
-0.14508632
-0.1506518
0.1293391
0.00080217842
-0.0037994454
0.0030190795
-0.011856342
0.0065435301
-0.020602471
0.011257315
-0.029910589
0.017017025
-0.039635048
0.023649565
-0.049606689
0.03095471
-0.059644517
0.038713267
-0.069569729
0.046699483
-0.079219016
0.054695708
-0.088456574
0.062506991
-0.097183357
0.069973383
-0.10534223
0.076978251
-0.11291855
0.083451691
-0.11993642
0.089369025
-0.1264516
0.094745178
-0.13254243
0.099626293
-0.13830012
0.10408022
-0.14381981
0.10818748
-0.14919359
-0.15450277
0.11203845
0.00085746092
-0.0046569062
0.0031769237
-0.014175804
0.0067969683
-0.024222515
0.011545122
-0.034658743
0.017224223
-0.045314149
0.023611857
-0.055994323
0.030467952
-0.066500612
0.037547753
-0.07664953
0.044617687
-0.086288949
0.051471264
-0.095310151
0.057942238
-0.10365433
0.063912999
-0.11131299
0.069317232
-0.11832279
0.074136959
-0.12475615
0.078395084
-0.13070973
0.082145117
-0.13629247
0.085460011
-0.14161501
0.088421823
-0.14678162
0.091113509
-0.15188527
-0.15700425
0.093614993
0.00089156547
-0.0055484715
0.0032526612
-0.0165369
0.0068661053
-0.027835959
0.01150528
-0.039297918
0.016923345
-0.050732213
0.022857729
-0.061928706
0.029042693
-0.072685577
0.035225872
-0.082832709
0.04118533
-0.092248407
0.046743804
-0.10086863
0.051777579
-0.10868811
0.056218811
-0.11575423
0.060051531
-0.12215551
0.063302679
-0.12800729
0.066030207
-0.13343726
0.068310483
-0.13857274
0.070226873
-0.1435314
0.071860883
-0.14841563
0.073286426
-0.15331081
-0.15828481
0.074566987
0.00090097335
-0.0064494447
0.0032371176
-0.018873044
0.0067360974
-0.031334939
0.011121081
-0.043682901
0.016104316
-0.055715448
0.021396622
-0.067221012
0.026723771
-0.078012726
0.031844338
-0.087953275
0.03656509
-0.096969161
0.040750752
-0.10505429
0.044326544
-0.1122639
0.047273637
-0.11870132
0.049619056
-0.12450092
0.05142242
-0.12981066
0.052762009
-0.13477685
0.053722303
-0.13953304
0.054384391
-0.14419349
0.054819874
-0.14885111
0.055088068
-0.15357901
0.055234936
-0.15843168
-0.00020294803
0.0002029481
-1.2071446e-11
-0.00067957001
0.00047662209
-4.8285241e-11
-0.0013459078
0.00066633796
-8.0198135e-11
-0.0021376343
0.00079172665
-1.1445015e-10
-0.0030030073
0.00086537328
-1.4673915e-10
-0.0038997685
0.0008967614
-1.8283815e-10
-0.004792899
0.00089313084
-2.1467174e-10
-0.005652743
0.00085984434
-2.5114911e-10
-0.0064535304
0.00080078778
-2.812967e-10
-0.0071722211
0.00071869101
-3.1692304e-10
-0.0077875819
0.00061536127
-3.4423076e-10
-0.0082794481
0.00049186672
-3.7764163e-10
-0.0086281401
0.00034869242
-4.0137058e-10
-0.0088140264
0.00018588686
-4.3149787e-10
-0.0088172663
3.2404026e-06
-4.5065124e-10
-0.0086178317
-0.00019943403
-4.7605986e-10
-0.0081957715
-0.00042205959
-4.8971413e-10
-0.0075308042
-0.00066496677
-5.0700993e-10
-0.0066019072
-0.00092889638
-5.097931e-10
-0.0012002064
-0.0054017003
-5.0693539e-10
-0.00018847567
0.00039142381
-0.00062659051
0.00091473698
-0.001231731
0.0012714785
-0.0019396736
0.0014996693
-0.0026980573
0.001623757
-0.003463432
0.0016621362
-0.0041991028
0.0016288017
-0.0048733127
0.0015340542
-0.0054577985
0.0013852737
-0.0059266511
0.0011875437
-0.0062553958
0.00094410594
-0.0064202458
0.00065671686
-0.0063974952
0.00032594181
-0.006163035
-4.8573209e-05
-0.0056920261
-0.0004677685
-0.0049588158
-0.00093264422
-0.0039371532
-0.0014437221
-0.00260011
-0.00200201
-0.00091992713
-0.0026090792
-0.0032350442
0.0011149107
-0.0001592983
0.00055072215
-0.0005200166
0.0012754553
-0.0010027856
0.0017542476
-0.0015440981
0.0020409819
-0.0020907659
0.0021704248
-0.0025973184
0.0021686888
-0.0030240505
0.0020555339
-0.0033353484
0.0018453522
-0.0034983382
0.0015482635
-0.0034818053
0.0011710109
-0.0032553068
0.00071760749
-0.0027884475
0.0001898577
-0.0020502437
-0.000412262
-0.0010086062
-0.0010902106
0.00037009068
-0.0018464654
0.0021212912
-0.0026838446
0.0042822212
-0.0036046521
0.0068915791
-0.0046113679
0.0099894632
-0.0057069632
-0.0068411273
0.013595546
-0.00011776348
0.00066848568
-0.00036750878
0.0015252007
-0.00067423229
0.0020609712
-0.00097544755
0.0023421972
-0.0012168851
0.0024118624
-0.0013503551
0.0023021589
-0.0013320844
0.0020372633
-0.0011212558
0.0016345236
-0.00067880765
0.0011058154
3.3522158e-05
0.00045868117
0.0010539835
-0.00030285377
0.0024214625
-0.0011776212
0.0041760278
-0.0021668273
0.0063594132
-0.0032735959
0.0090155245
-0.0045025766
0.012190998
-0.0058593184
0.01593558
-0.0073492333
0.020301821
-0.0089776096
0.025344871
-0.010750013
-0.012591819
0.031095563
-6.6909804e-05
0.00073539554
-0.00017897953
0.0016372705
-0.00026576991
0.0021477616
-0.00026576704
0.0023421944
-0.0001233274
0.0022694228
0.00021296249
0.001965869
0.00079161795
0.0014586079
0.0016594287
0.0007667129
0.0028624317
-9.7187501e-05
0.004446698
-0.001125585
0.0064588964
-0.0023150522
0.0089467092
-0.0036654339
0.011959156
-0.0051792738
0.015546919
-0.0068613591
0.019762714
-0.0087183715
0.024661903
-0.010758508
0.030303373
-0.012990703
0.036750044
-0.015424281
0.044069648
-0.018069616
-0.020827092
0.052304921
-9.7926418e-06
0.00074518824
3.5432366e-05
0.0015920455
0.00020218126
0.0019810128
0.00055133003
0.0019930457
0.0011401685
0.0016805845
0.0020235607
0.0010824769
0.0032549102
0.00022725838
0.0048870435
-0.00086542032
0.0069728663
-0.0021830103
0.0095657357
-0.0037184544
0.012719666
-0.0054689827
0.01648943
-0.0074351973
0.020930474
-0.0096203181
0.026098753
-0.012029638
0.032050614
-0.014670233
0.038843085
-0.017550978
0.046535041
-0.020682659
0.055189265
-0.024078505
0.064876288
-0.02775664
-0.031598455
0.075647652
5.1123204e-05
0.0006940651
0.00026722904
0.0013759398
0.00071201191
0.00153623
0.0014461466
0.0012589111
0.0025286723
0.00059805879
0.0040177523
-0.00040660303
0.0059712671
-0.0017262563
0.0084471987
-0.0033413518
0.011503756
-0.0052395679
0.015199341
-0.0074140385
0.019592266
-0.0098619077
0.024740222
-0.012583154
0.030699529
-0.015579625
0.03752422
-0.018854329
0.045265089
-0.022411102
0.053969124
-0.026255013
0.06368029
-0.030393825
0.074442907
-0.034841121
0.086310586
-0.039624319
-0.044626628
0.099338759
0.00011432811
0.00057973705
0.00051068757
0.00097958039
0.0012510883
0.00079582937
0.002396252
0.00011374735
0.0040067281
-0.0010124172
0.0061432307
-0.0025431056
0.0088666124
-0.0044496379
0.012237679
-0.0067124188
0.016316777
-0.0093186652
0.02116303
-0.012260292
0.026833293
-0.015532171
0.033380807
-0.019130668
0.040853592
-0.023052411
0.049292627
-0.027293364
0.05872993
-0.031848404
0.069186912
-0.036711995
0.080674175
-0.041881089
0.093194601
-0.047361547
0.10675482
-0.053184533
-0.05927001
0.1213982
0.00017916834
0.00040056879
0.00076276223
0.0003959866
0.0018116574
-0.00025306574
0.0033863085
-0.0014609036
0.005547734
-0.0031738426
0.0083572494
-0.0053526209
0.011875831
-0.0079682192
0.016163177
-0.010999765
0.021276414
-0.014431902
0.027268453
-0.018252331
0.034186045
-0.022449763
0.04206756
-0.027012182
0.050940541
-0.031925391
0.060819052
-0.037171875
0.071700825
-0.042730176
0.083564243
-0.048575413
0.096366141
-0.054682987
0.11004314
-0.06103855
0.1245251
-0.067666487
-0.07457185
0.13982694
0.00024592705
0.0010231774
0.0023907475
0.0044073377
0.0071321232
0.010623732
0.014938642
0.020129241
0.026241555
0.033312737
0.041368441
0.050420251
0.060463316
0.071474253
0.083409168
0.096201191
0.10975579
0.12393328
0.1384663
0.15288015
-0.0034442205
-0.0019574791
-6.4557074e-10
-0.0012031367
-0.0022410832
-5.7836661e-10
0.0012993805
-0.0025025167
-4.7656094e-10
0.0040063144
-0.0027069335
-3.3840333e-10
0.0068909121
-0.0028845975
-1.7183198e-10
0.0099359894
-0.0030450774
1.576516e-11
0.013122712
-0.0031867226
2.3743313e-10
0.016433145
-0.0033104339
4.6999743e-10
0.019851686
-0.0034185418
7.0003409e-10
0.023364223
-0.0035125374
9.1010579e-10
0.02695758
-0.0035933584
1.097397e-09
0.030619452
-0.0036618737
1.2430409e-09
0.034338327
-0.0037188757
1.3392594e-09
0.038103349
-0.0037650239
1.3616565e-09
0.041904226
-0.0038008783
1.2979127e-09
0.045731161
-0.0038269362
1.12285e-09
0.04957481
-0.00384365
8.2716696e-10
0.053426251
-0.0038514409
3.9453915e-10
0.057276965
-0.003850714
-1.710932e-10
0.061118835
-0.0038418697
-8.663777e-10
0.064944151
-0.0038253139
-1.6621909e-09
0.068745617
-0.0038014639
-2.5233005e-09
0.072516374
-0.0037707536
-3.383312e-09
0.076250015
-0.0037336362
-4.1655027e-09
0.079940605
-0.003690585
-4.7604087e-09
0.083582703
-0.0036420936
-5.051047e-09
0.087171383
-0.0035886744
-4.8957423e-09
0.090702244
-0.0035308573
-4.161111e-09
0.094171434
-0.0034691873
-2.7125403e-09
0.097575657
-0.0034042226
-4.5662981e-10
0.10091219
-0.0033365337
2.6601359e-09
0.10417888
-0.0032667018
6.6015834e-09
0.10737419
-0.0031953195
1.1240473e-08
0.11049717
-0.0031229925
1.6311951e-08
0.11354749
-0.0030503422
2.1423462e-08
0.11652547
-0.0029780125
2.6031757e-08
0.11943212
-0.0029066773
2.9486256e-08
0.12226914
-0.0028370527
3.1056629e-08
0.12503903
-0.0027699189
3.0034288e-08
0.12774514
-0.0027061285
2.5829525e-08
0.13039182
-0.0026466993
1.8127011e-08
0.13298448
-0.0025926734
7.0457113e-09
0.13553032
-0.0025458309
-6.7418235e-09
0.13803712
-0.0025067737
-2.1970132e-08
0.14051885
-0.0024816975
-3.6703255e-08
0.14298115
-0.0024622505
-4.8559754e-08
0.14547189
-0.0024906832
-5.5011257e-08
0.14793827
-0.0024663323
-5.3336441e-08
0.15066747
-0.0027291565
-4.4790076e-08
-0.002520436
-8.8884705e-09
0.0029530899
-0.0037956582
0.0050700692
-0.0043580625
0.007435242
-0.0048676895
0.0099860397
-0.0052577313
0.01270145
-0.0056000084
0.015569287
-0.005912914
0.018572916
-0.0061903517
0.021696023
-0.006433541
0.024924692
-0.006647211
0.028246273
-0.0068341186
0.031648752
-0.0069958369
0.035120771
-0.007133893
0.038651609
-0.0072497139
0.042231067
-0.0073444823
0.045849391
-0.0074192016
0.049497226
-0.0074747714
0.053165595
-0.0075120193
0.056845879
-0.0075317249
0.060529812
-0.0075346468
0.064209487
-0.0075215445
0.067877367
-0.0074931946
0.071526307
-0.0074504033
0.075149567
-0.0073940141
0.078740843
-0.0073249121
0.082294284
-0.0072440258
0.085804516
-0.0071523256
0.089266663
-0.0070508215
0.092676365
-0.0069405594
0.096029794
-0.0068226167
0.09932367
-0.0066980985
0.10255527
-0.0065681349
0.10572245
-0.0064338786
0.10882363
-0.0062965064
0.11185786
-0.0061572215
0.11482478
-0.0060172608
0.11772468
-0.0058779059
0.1205585
-0.0057405007
0.12332792
-0.0056064734
0.12603538
-0.0054773821
0.12868418
-0.0053549284
0.13127863
-0.0052411469
0.13382407
-0.0051381176
0.13632764
-0.0050493978
0.13879705
-0.0049761846
0.1412462
-0.0049308438
0.14368067
-0.0048967229
0.1461479
-0.0049579161
0.14859587
-0.0049142999
0.15130691
-0.0054401953
-0.0050340347
0.015185573
-0.0053856852
0.017037292
-0.0062097815
0.019113651
-0.0069440486
0.021344627
-0.0074887068
0.023718653
-0.0079740347
0.026232233
-0.0084264939
0.028872868
-0.0088309867
0.031627178
-0.0091878506
0.034484172
-0.0095042055
0.037433743
-0.0097836895
0.040465896
-0.01002799
0.043570904
-0.010238901
0.046739387
-0.010418196
0.049962245
-0.01056734
0.053230618
-0.010687575
0.056535884
-0.010780038
0.059869661
-0.010845796
0.063223819
-0.010885883
0.066590496
-0.010901324
0.069962118
-0.010893167
0.073331429
-0.010862505
0.076691512
-0.010810486
0.080035823
-0.010738326
0.083358219
-0.010647308
0.086652981
-0.010538788
0.089914844
-0.010414188
0.093139016
-0.010274994
0.096321203
-0.010122747
0.099457623
-0.0099590368
0.10254502
-0.0097855
0.1055807
-0.0096038089
0.10856249
-0.0094156737
0.11148883
-0.0092228419
0.11435871
-0.0090271026
0.11717175
-0.0088302978
0.11992818
-0.008634338
0.12262891
-0.0084412298
0.12527554
-0.0082531078
0.12787046
-0.0080723029
0.1304169
-0.007901363
0.13291909
-0.0077433356
0.13538231
-0.0076013371
0.1378136
-0.0074806926
0.14022062
-0.0073832073
0.1426171
-0.0073273161
0.1450087
-0.0072883285
0.14744177
-0.0073909792
0.14986668
-0.0073392183
0.15255433
-0.0081278432
-0.0075489015
0.032298613
-0.0065887354
0.033735064
-0.0076462324
0.035363622
-0.0085726072
0.037111335
-0.0092364201
0.038978992
-0.0098416918
0.040973048
-0.01042055
0.043086462
-0.010944401
0.045309825
-0.011411214
0.047635681
-0.011830062
0.050056933
-0.012204941
0.052566008
-0.012537066
0.055155096
-0.012827989
0.057816337
-0.013079437
0.060541853
-0.013292856
0.063323761
-0.013469483
0.066154213
-0.013610489
0.069025442
-0.013717026
0.071929811
-0.013790252
0.074859853
-0.013831366
0.077808315
-0.013841629
0.080768199
-0.013822389
0.083732804
-0.013775091
0.08669576
-0.013701282
0.089651067
-0.013602615
0.092593125
-0.013480846
0.095516763
-0.013337827
0.098417267
-0.013175497
0.1012904
-0.012995876
0.10413241
-0.012801051
0.10694008
-0.012593172
0.10971071
-0.012374439
0.11244215
-0.012147108
0.11513279
-0.011913484
0.11778162
-0.011675933
0.12038821
-0.011436892
0.12295277
-0.011198893
0.12547614
-0.010964599
0.12795988
-0.010736848
0.13040631
-0.010518739
0.13281862
-0.010313666
0.13520097
-0.010125686
0.13755858
-0.0099589522
0.13989843
-0.0098205438
0.14222813
-0.0097129002
0.14456117
-0.0096603628
0.14690348
-0.009630634
0.1492997
-0.0097872007
0.15170409
-0.0097436144
0.15437039
-0.010794137
-0.010078583
0.052965349
-0.007249163
0.053827216
-0.0085081003
0.054843974
-0.0095893646
0.055950129
-0.010342575
0.057160663
-0.011052226
0.05849001
-0.011749897
0.059936814
-0.012391205
0.061496339
-0.012970739
0.063164505
-0.013498228
0.064936852
-0.013977287
0.066808001
-0.014408215
0.068771835
-0.014791823
0.070821749
-0.015129351
0.072950812
-0.015421919
0.07515186
-0.015670532
0.077417583
-0.015876212
0.079740607
-0.01604005
0.082113583
-0.016163228
0.084529253
-0.016247035
0.086980515
-0.016292891
0.089460482
-0.016302356
0.091962533
-0.016277142
0.094480358
-0.016219106
0.097007998
-0.016130255
0.099539887
-0.016012735
0.10207088
-0.015868817
0.10459627
-0.015700889
0.10711183
-0.01551144
0.10961383
-0.015303051
0.11209904
-0.015078378
0.11456475
-0.014840148
0.11700879
-0.014591153
0.11942957
-0.014334258
0.12182603
-0.014072397
0.12419774
-0.013808601
0.12654487
-0.013546025
0.12886826
-0.013287985
0.13116943
-0.013038023
0.1334507
-0.012800009
0.13571522
-0.012578183
0.13796715
-0.012377614
0.14021169
-0.012203497
0.1424558
-0.012064648
0.14470707
-0.011964174
0.14697882
-0.011932115
0.14927731
-0.011929123
0.15164511
-0.012154996
0.1540415
-0.012140005
0.15669858
-0.013451219
-0.0126442
0.075595902
-0.0071974126
0.075721168
-0.0086333672
0.075966887
-0.0098350838
0.076289897
-0.010665585
0.076718453
-0.011480783
0.077269522
-0.012300966
0.077946263
-0.013067946
0.078748752
-0.013773227
0.079675438
-0.014424914
0.080723312
-0.015025162
0.081888277
-0.015573181
0.083165191
-0.016068737
0.084548033
-0.016512192
0.086030194
-0.01690408
0.087604685
-0.017245023
0.089264256
-0.017535782
0.091001508
-0.017777303
0.092809008
-0.017970728
0.094679383
-0.01811741
0.096605396
-0.018218905
0.098580021
-0.018276982
0.1005965
-0.018293617
0.10264838
-0.01827099
0.1047296
-0.01821147
0.10683447
-0.018117606
0.10895775
-0.017992101
0.11109467
-0.017837808
0.11324093
-0.017657698
0.11539273
-0.017454856
0.11754681
-0.01723246
0.11970044
-0.016993771
0.12185142
-0.016742133
0.12399813
-0.01648097
0.12613953
-0.016213802
0.12827519
-0.015944261
0.1304053
-0.015676129
0.1325307
-0.01541339
0.13465297
-0.015160295
0.13677446
-0.014921495
0.13889836
-0.014702087
0.1410289
-0.014508156
0.14317135
-0.014345944
0.1453327
-0.014225991
0.14752064
-0.014152115
0.14974833
-0.014159809
0.15202251
-0.014203305
0.1543834
-0.014515882
0.15679616
-0.014552771
0.15946818
-0.016123238
-0.015275852
0.098428837
-0.0062874903
0.097679813
-0.0078843439
0.097022747
-0.0091780182
0.096458831
-0.01010167
0.096024411
-0.011046363
0.095730815
-0.01200737
0.095583522
-0.012920653
0.09558668
-0.013776385
0.09573997
-0.014578204
0.096040266
-0.015325458
0.096483353
-0.016016267
0.097063974
-0.016649358
0.097775804
-0.017224023
0.098611783
-0.017740059
0.099564411
-0.018197651
0.10062592
-0.018597286
0.10178838
-0.018939766
0.10304386
-0.019226208
0.1043845
-0.019458046
0.1058026
-0.019637006
0.10729071
-0.019765099
0.1088417
-0.019844607
0.11044878
-0.019878069
0.11210557
-0.019868258
0.11380613
-0.019818162
0.11554499
-0.019730962
0.11731718
-0.019610004
0.11911827
-0.019458784
0.12094434
-0.019280922
0.12279202
-0.019080144
0.12465853
-0.018860283
0.12654165
-0.018625253
0.12843975
-0.018379072
0.13035181
-0.018125862
0.13227744
-0.017869882
0.13421687
-0.017615563
0.13617105
-0.017367574
0.13814166
-0.017130896
0.14013114
-0.016910982
0.14214285
-0.016713794
0.14418115
-0.016546455
0.14625147
-0.016416266
0.14836096
-0.016335476
0.15051749
-0.016308651
0.15273417
-0.016376492
0.15501832
-0.01648745
0.15740768
-0.016905242
0.15987383
-0.017018919
0.16259773
-0.018847139
-0.018013157
0.11958855
-0.0044778406
0.11791133
-0.0062071307
0.1162884
-0.0075550835
0.1148038
-0.0086170697
0.11349388
-0.0097364481
0.11235626
-0.010869743
0.11139649
-0.011960888
0.110621
-0.013000895
0.11002934
-0.01398654
0.10961705
-0.014913169
0.10937847
-0.015777685
0.10930707
-0.016577967
0.10939544
-0.017312388
0.10963542
-0.017980036
0.11001846
-0.018580694
0.11053582
-0.019114651
0.1111787
-0.019582638
0.11193831
-0.019985818
0.11280603
-0.020325772
0.11377349
-0.020604462
0.1148326
-0.020824207
0.11597565
-0.020987658
0.11719535
-0.021097775
0.11848489
-0.021157794
0.11983793
-0.021171206
0.12124869
-0.021141719
0.12271192
-0.021073237
0.12422296
-0.020969825
0.12577773
-0.020835691
0.12737275
-0.020675164
0.12900515
-0.02049268
0.13067267
-0.020292778
0.13237371
-0.020080105
0.13410727
-0.019859425
0.13587305
-0.019635657
0.1376714
-0.019413917
0.13950341
-0.019199589
0.14137094
-0.018998418
0.14327663
-0.018816679
0.14522407
-0.018661235
0.14721788
-0.018540257
0.14926374
-0.018462128
0.15136906
-0.018440803
0.15354203
-0.018481619
0.15579579
-0.018630255
0.15813832
-0.018829974
0.16060491
-0.019371838
0.16317375
-0.019587751
0.16599886
-0.021672251
-0.020904887
0.1372586
-0.0019095069
0.13475277
-0.0037012988
0.13220808
-0.0050103975
0.12986635
-0.0062753339
0.1277547
-0.0076247978
0.12585462
-0.0089696621
0.12416905
-0.01027532
0.12270319
-0.011535032
0.1214556
-0.012738956
0.12042067
-0.013878231
0.11959101
-0.014948032
0.11895845
-0.015945402
0.11851413
-0.016868069
0.1182487
-0.017714602
0.11815246
-0.018484456
0.11821559
-0.019177788
0.1184283
-0.019795342
0.11878088
-0.020338403
0.11926387
-0.020808763
0.1198681
-0.021208689
0.12058477
-0.021540873
0.12140551
-0.021808401
0.12232246
-0.022014722
0.12332827
-0.022163603
0.12441616
-0.022259099
0.12557996
-0.022305519
0.1268141
-0.022307379
0.12811366
-0.022269385
0.12947436
-0.022196392
0.13089259
-0.022093388
0.13236538
-0.021965478
0.13389048
-0.021817875
0.13546628
-0.021655907
0.13709189
-0.02148503
0.1387671
-0.021310873
0.14049246
-0.021139276
0.14226926
-0.020976388
0.14409959
-0.020828747
0.14598641
-0.020703495
0.1479336
-0.020608423
0.14994612
-0.020552785
0.15203005
-0.020546058
0.15419316
-0.020603914
0.15644402
-0.020732472
0.15879594
-0.020982176
0.16125759
-0.021291628
0.16386193
-0.021976173
0.16659376
-0.022319579
0.16958009
-0.024658586
-0.024007778
0.15035135
0.00061930023
0.1470723
-0.00042225008
0.14378668
-0.0017247822
0.14075189
-0.0032405429
0.1379712
-0.0048441031
0.13543847
-0.0064369287
0.13315568
-0.0079925307
0.13112303
-0.0095023784
0.12933818
-0.010954109
0.12779607
-0.01233612
0.12648901
-0.013640978
0.12540776
-0.014864149
0.12454229
-0.016002598
0.12388211
-0.017054419
0.12341641
-0.018018755
0.12313427
-0.018895648
0.12302482
-0.019685896
0.12307738
-0.020390963
0.12328154
-0.021012924
0.12362726
-0.021554409
0.12410494
-0.022018553
0.12470549
-0.022408951
0.12542038
-0.022729612
0.12624169
-0.022984911
0.12716214
-0.023179546
0.12817511
-0.023318493
0.1292747
-0.023406969
0.1304557
-0.023450384
0.13171363
-0.02345432
0.13304474
-0.023424493
0.134446
-0.023366742
0.13591515
-0.023287021
0.13745064
-0.023191399
0.1390517
-0.023086089
0.1407183
-0.022977477
0.14245121
-0.022872187
0.144252
-0.022777172
0.14612307
-0.022699819
0.14806774
-0.02264817
0.1500903
-0.022630983
0.15219614
-0.022658626
0.15439177
-0.022741687
0.15668544
-0.02289758
0.15908612
-0.023133149
0.1616075
-0.023503565
0.16425864
-0.023942762
0.16707124
-0.024788773
0.17003333
-0.02528167
0.17325442
-0.02787967
-0.027380351
0.18935877
0.0052022502
-0.19394172
0.18556725
0.003369274
0.18219423
0.0016482384
0.17906903
-0.00011534831
0.17615431
-0.0019293756
0.17342507
-0.0037076941
0.17086324
-0.0054306977
0.16845993
-0.0070990701
0.16621138
-0.0087055527
0.16411554
-0.01024028
0.16217069
-0.011696127
0.16037486
-0.01306832
0.15872556
-0.0143533
0.15721966
-0.015548523
0.15585342
-0.016652515
0.15462256
-0.017664788
0.15352236
-0.018585695
0.15254775
-0.019416352
0.1516934
-0.02015857
0.1509538
-0.020814806
0.15032335
-0.021388102
0.14979642
-0.021882028
0.14936745
-0.022300638
0.14903095
-0.022648411
0.14878161
-0.022930203
0.14861431
-0.023151195
0.14852419
-0.023316848
0.14850666
-0.023432859
0.14855746
-0.023505123
0.14867267
-0.023539701
0.14884873
-0.023542804
0.14908249
-0.023520775
0.14937119
-0.023480101
0.14971253
-0.02342743
0.15010466
-0.023369606
0.15054621
-0.023313737
0.15103632
-0.023267285
0.15157469
-0.023238182
0.15216158
-0.023235059
0.1527979
-0.023267303
0.15348529
-0.023346015
0.15422609
-0.023482489
0.15502379
-0.023695284
0.15588226
-0.023991618
0.15680855
-0.024429852
0.15780579
-0.02494
0.15889412
-0.025877104
0.16005386
-0.026441413
0.16137882
-0.029204635
-0.028740796
0.21729233
0.0085816569
-0.22067174
0.21383828
0.0068233317
0.21064553
0.0048409885
0.20756112
0.002969061
0.2045363
0.0010954398
0.20160207
-0.00077346599
0.19877542
-0.002604048
0.19606099
-0.0043846315
0.19346477
-0.0061093387
0.19099374
-0.0077692503
0.18865324
-0.0093556258
0.18644682
-0.010861897
0.18437663
-0.012283113
0.18244356
-0.013615447
0.18064724
-0.014856205
0.17898628
-0.016003822
0.17745833
-0.017057749
0.17606033
-0.018018351
0.17478859
-0.018886826
0.17363893
-0.019665148
0.17260682
-0.020355997
0.17168749
-0.020962691
0.17087597
-0.021489126
0.17016728
-0.021939713
0.16955639
-0.022319319
0.1690384
-0.022633206
0.16860854
-0.02288698
0.16826221
-0.023086536
0.16799511
-0.023238017
0.16780318
-0.023347778
0.16768274
-0.023422357
0.16763043
-0.023468464
0.16764331
-0.023492982
0.16771886
-0.023502982
0.16785502
-0.023505766
0.16805021
-0.023508923
0.16830335
-0.023520433
0.16861395
-0.023548778
0.16898207
-0.023603184
0.16940845
-0.023693679
0.16989451
-0.023832077
0.17044246
-0.024030442
0.17105544
-0.024308263
0.17173745
-0.024673627
0.17249406
-0.025186457
0.17333096
-0.025776904
0.17425868
-0.026804825
0.17527884
-0.027461568
0.17642009
-0.030345885
-0.029984159
0.24417157
0.011287786
-0.2468777
0.24133998
0.0096549241
0.23850602
0.0076749482
0.23567923
0.0057958444
0.23282273
0.003951939
0.22995728
0.0020919849
0.22711411
0.00023912608
0.22431262
-0.0015831375
0.22156884
-0.0033655589
0.21889881
-0.0050992286
0.21631654
-0.0067733489
0.21383315
-0.0083785069
0.21145741
-0.0099073796
0.20919607
-0.011354105
0.20705395
-0.012714082
0.20503414
-0.013984011
0.20313822
-0.015161836
0.2013665
-0.016246626
0.19971815
-0.017238477
0.19819144
-0.018138442
0.19678389
-0.018948444
0.1954924
-0.0196712
0.19431342
-0.02031014
0.19324304
-0.02086934
0.19227716
-0.021353442
0.19141155
-0.021767587
0.19064192
-0.022117352
0.18996407
-0.022408685
0.18937391
-0.022647858
0.18886754
-0.022841415
0.18844133
-0.022996146
0.18809193
-0.023119063
0.18781635
-0.023217396
0.18761197
-0.023298607
0.18747663
-0.023370428
0.18740863
-0.023440916
0.18740675
-0.023518558
0.18747036
-0.023612382
0.18759938
-0.023732204
0.1877944
-0.023888697
0.18805667
-0.024094357
0.1883883
-0.024362064
0.18879204
-0.024712006
0.18927206
-0.02515365
0.18983229
-0.025746687
0.19048124
-0.026425852
0.19121844
-0.027542029
0.19206999
-0.028313111
0.19298701
-0.03126291
-0.031080564
0.26963944
0.013305473
-0.27165713
0.26748768
0.011806682
0.26516293
0.0099996957
0.26274165
0.0082171285
0.26023204
0.0064615471
0.2576443
0.0046797223
0.25500458
0.0028788519
0.25233709
0.001084355
0.2496619
-0.00069037207
0.24699896
-0.0024362946
0.24436768
-0.0041420616
0.24178529
-0.00579612
0.23926668
-0.0073887697
0.23682451
-0.0089119303
0.23446925
-0.010358824
0.23220928
-0.01172404
0.230051
-0.013003562
0.22799907
-0.014194694
0.22605656
-0.015295963
0.22422516
-0.01630704
0.22250537
-0.017228658
0.22089669
-0.018062523
0.21939778
-0.01881123
0.21800661
-0.019478172
0.21672063
-0.020067462
0.21553689
-0.020583846
0.21445217
-0.02103263
0.21346309
-0.021419605
0.21256622
-0.021750987
0.21175817
-0.02203336
0.21103565
-0.022273633
0.2103956
-0.022479012
0.2098352
-0.02265699
0.20935194
-0.022815351
0.20894371
-0.022962202
0.20860883
-0.023106028
0.20834606
-0.02325579
0.20815472
-0.023421042
0.20803468
-0.023612166
0.20798645
-0.023840469
0.20801118
-0.024119086
0.20811085
-0.024461737
0.20828794
-0.024889092
0.20854667
-0.025412377
0.2088895
-0.026089516
0.20932713
-0.026863486
0.20984925
-0.028064142
0.2105028
-0.028966667
0.21116763
-0.031927734
-0.031995458
0.29330759
0.014624998
-0.29462711
0.29184078
0.013273482
0.2901317
0.01170878
0.28824743
0.010101398
0.28622303
0.0084859506
0.2840694
0.0068333455
0.28180502
0.0051432353
0.27945322
0.0034361528
0.2770354
0.0017274534
0.2745717
2.7403325e-05
0.27208245
-0.0016528157
0.26958759
-0.0033012514
0.26710556
-0.0049067457
0.26465313
-0.0064594953
0.26224519
-0.0079508919
0.25989472
-0.0093735695
0.25761269
-0.010721531
0.25540816
-0.011990162
0.25328837
-0.013176175
0.2512589
-0.014277564
0.24932378
-0.015293538
0.2474857
-0.016224446
0.24574616
-0.017071691
0.24410564
-0.017837646
0.24256374
-0.018525566
0.24111939
-0.019139496
0.23977095
-0.01968419
0.23851637
-0.020165027
0.23735333
-0.02058794
0.23627931
-0.020959348
0.23529179
-0.021286106
0.23438824
-0.021575465
0.2335663
-0.021835051
0.23282381
-0.022072864
0.23215891
-0.022297299
0.23157008
-0.022517199
0.23105623
-0.022741943
0.23061675
-0.022981562
0.23025155
-0.023246963
0.22996114
-0.023550054
0.22974661
-0.023904558
0.22960989
-0.024325017
0.2295532
-0.024832405
0.22958074
-0.025439918
0.22969374
-0.026202513
0.2299043
-0.027074051
0.23019392
-0.028353763
0.23062557
-0.02939831
0.23101856
-0.032320728