/*--------------------------------*- C++ -*----------------------------------*\
  =========                 |
  \\      /  F ield         | OpenFOAM: The Open Source CFD Toolbox
   \\    /   O peration     | Website:  https://openfoam.org
    \\  /    A nd           | Version:  6
     \\/     M anipulation  |
\*---------------------------------------------------------------------------*/
FoamFile
{
    version     2.0;
    format      ascii;
    class       volVectorField;
    location    "53";
    object      U;
}
// * * * * * * * * * * * * * * * * * * * * * * * * * * * * * * * * * * * * * //

dimensions      [0 1 -1 0 0 0 0];

internalField   nonuniform List<vector> 
9200
(
(0.0010574274 0.0014103889 -5.9341468e-20)
(0.013754564 -0.0020999955 4.6168298e-20)
(0.038483385 -0.0059394724 -3.8600874e-20)
(0.072561394 -0.0098680753 -6.0407154e-20)
(0.11418906 -0.0136271 1.8880597e-20)
(0.16215996 -0.016775644 3.2830408e-20)
(0.2154194 -0.019020381 -1.2305668e-20)
(0.27299324 -0.020210345 9.2981346e-21)
(0.33396903 -0.020281491 1.684308e-20)
(0.39746387 -0.019233918 1.4888122e-21)
(0.46260067 -0.017120495 -2.1519577e-20)
(0.52849873 -0.014035944 2.0733496e-20)
(0.59427614 -0.010106004 -4.0538898e-20)
(0.65906221 -0.0054763799 -2.120621e-20)
(0.72201832 -0.00030094364 5.9236799e-21)
(0.78236476 0.005267978 -2.5229606e-20)
(0.83942694 0.01110303 2.5327432e-20)
(0.89276012 0.017250416 2.2390954e-20)
(0.94196566 0.023842798 -2.7069027e-22)
(0.98432496 0.027504812 -1.6326866e-21)
(0.0052828897 -0.0013628606 -1.7099433e-20)
(0.027078845 -0.0090479467 3.9849242e-20)
(0.061903975 -0.014905629 2.363637e-20)
(0.10667113 -0.019302269 -1.1596466e-19)
(0.15927382 -0.022376699 -1.2760841e-20)
(0.21824885 -0.023914811 7.3462073e-20)
(0.28227604 -0.023819661 -3.556358e-20)
(0.3501023 -0.022123529 -8.4108274e-21)
(0.42052864 -0.018930318 3.4377454e-20)
(0.49238613 -0.014396854 -4.3381396e-20)
(0.56452441 -0.0087249871 -3.0435042e-20)
(0.63581831 -0.0021512782 7.2175347e-20)
(0.70518792 0.0050646822 3.8426828e-20)
(0.77162778 0.012651884 -6.8244548e-20)
(0.83424102 0.020337864 1.469069e-20)
(0.89227286 0.027853426 -3.6899143e-20)
(0.94515245 0.034946835 -1.3825749e-20)
(0.99259398 0.041457164 7.1368015e-20)
(1.0344663 0.046968305 2.9880918e-20)
(1.0689722 0.048336656 -8.3732791e-20)
(0.0109044 -0.0040650447 3.68522e-20)
(0.04411407 -0.015504021 2.5095353e-21)
(0.090821525 -0.022665336 2.2399627e-20)
(0.14758592 -0.026644482 9.8328641e-22)
(0.21200217 -0.028063898 -4.0881798e-20)
(0.2823234 -0.027000471 1.8613158e-20)
(0.35692712 -0.023614086 1.3455585e-20)
(0.43424605 -0.018178324 -5.045441e-20)
(0.51277147 -0.011018546 5.7417145e-20)
(0.59104822 -0.0024948206 1.4308393e-20)
(0.66768498 0.0070057889 -5.4488367e-20)
(0.74138281 0.017082794 -1.8316853e-20)
(0.81097374 0.027338765 9.0474133e-21)
(0.87546181 0.037395702 2.3548224e-20)
(0.9340595 0.046909179 -1.1424749e-20)
(0.98621261 0.055577634 2.8006431e-20)
(1.0316151 0.063156891 -2.027333e-20)
(1.0702408 0.069507627 -7.0491822e-20)
(1.1022218 0.074356878 -2.394046e-20)
(1.1267013 0.075819482 4.8833301e-20)
(0.018020961 -0.0064493744 2.455667e-20)
(0.064987626 -0.020777142 5.1148315e-20)
(0.12523737 -0.028183431 1.992255e-20)
(0.19504835 -0.030617917 1.3009859e-20)
(0.27173329 -0.029274645 1.7308405e-20)
(0.35324266 -0.024591171 -4.7826324e-20)
(0.4376322 -0.01704877 -2.5709026e-20)
(0.52301709 -0.0072202114 0)
(0.60760386 0.0043007506 1.3989179e-20)
(0.68971472 0.016919029 -5.8979542e-21)
(0.76782484 0.030049715 -9.8267005e-20)
(0.84061153 0.043137838 -1.581095e-20)
(0.90700324 0.055680648 6.5391435e-20)
(0.96621843 0.067247449 4.5008571e-22)
(1.0177871 0.077494354 -1.5798086e-21)
(1.0615504 0.086171869 2.2061528e-20)
(1.0976391 0.093132265 -5.2983708e-21)
(1.1264506 0.098358408 -6.13231e-20)
(1.1485323 0.10182348 -4.6095719e-20)
(1.1638562 0.10257882 6.9785707e-20)
(0.026663096 -0.0082354966 -3.9244318e-21)
(0.089608872 -0.024119349 -5.1343137e-21)
(0.16477564 -0.030387845 5.6709533e-20)
(0.24826565 -0.029958645 1.8573449e-20)
(0.33714694 -0.024681169 -3.2021622e-20)
(0.42907366 -0.01542403 1.2189278e-20)
(0.52179965 -0.0030507477 2.6470741e-21)
(0.61317444 0.011520663 3.3713694e-20)
(0.70121366 0.027402494 5.6781514e-21)
(0.78415667 0.043763875 -1.3268128e-20)
(0.86052656 0.059848298 6.0423263e-20)
(0.92918704 0.074998673 -5.820909e-20)
(0.98938263 0.088681043 -1.3271255e-19)
(1.0407529 0.10050041 -5.601644e-21)
(1.0833176 0.11020637 8.3536212e-20)
(1.1174336 0.11768774 0)
(1.1437304 0.12296242 1.016002e-20)
(1.1630412 0.12618045 -1.55328e-20)
(1.1762882 0.1275242 -8.6424462e-21)
(1.1840362 0.12661505 2.1078043e-20)
(0.036772083 -0.0091195044 -5.4324066e-21)
(0.11763648 -0.024767758 4.3657987e-21)
(0.2086704 -0.028252955 -8.7788669e-21)
(0.30594395 -0.023545662 2.8525688e-20)
(0.40635297 -0.013218152 -2.9457907e-20)
(0.5073059 0.0013704472 -1.6967949e-20)
(0.6063334 0.018932096 3.7435111e-20)
(0.7011414 0.03818688 4.763455e-21)
(0.78972225 0.057966995 -2.4548622e-20)
(0.87043856 0.077251515 7.0111854e-20)
(0.94208935 0.095187097 4.9335152e-22)
(1.0039513 0.11111107 -8.0792631e-20)
(1.0557843 0.12456576 0)
(1.097798 0.13529786 3.9729838e-20)
(1.1305853 0.14324273 5.551661e-21)
(1.1550298 0.14849595 -7.7908772e-20)
(1.1722031 0.15127988 -1.9672325e-20)
(1.1832675 0.15192096 -1.2522266e-20)
(1.1893688 0.15076408 -1.4776264e-20)
(1.1913668 0.14776852 4.0593998e-20)
(0.048186324 -0.0087945669 -1.7300582e-20)
(0.14846096 -0.022003333 -2.2400704e-21)
(0.25577286 -0.020889747 3.0427171e-20)
(0.36634501 -0.010513077 3.7539908e-20)
(0.47701927 0.0057974655 -1.9984863e-20)
(0.58506707 0.026161089 -6.9339641e-20)
(0.6879426 0.048860514 -2.8088046e-20)
(0.78339963 0.072284894 7.9168822e-20)
(0.86963329 0.095053493 8.629264e-21)
(0.94537062 0.11605378 -2.4946281e-20)
(1.0099165 0.13445523 1.366544e-20)
(1.0631512 0.14971643 -4.3472899e-21)
(1.1054785 0.1615748 0)
(1.1377311 0.17001596 2.7312662e-20)
(1.16105 0.17522717 -7.9646036e-20)
(1.1767537 0.17754159 -3.1604442e-20)
(1.1862149 0.17738325 8.1388023e-20)
(1.1907606 0.17522657 -4.3220569e-21)
(1.1915886 0.17152014 3.5684804e-21)
(1.1896186 0.16640988 2.723496e-20)
(0.06063483 -0.0069786494 -3.2455337e-20)
(0.18120946 -0.015222863 -8.176505e-20)
(0.30459493 -0.0076441272 2.56087e-21)
(0.42738823 0.0096448685 7.0306778e-20)
(0.54654475 0.032576704 6.2563622e-20)
(0.65936968 0.058764896 -7.1724562e-20)
(0.76345083 0.08611282 -2.5687359e-22)
(0.8568322 0.11276887 8.5814563e-20)
(0.93816352 0.13726269 4.8987064e-20)
(1.0067688 0.15853361 -5.4420615e-20)
(1.0626425 0.17592072 -9.2674302e-20)
(1.1063809 0.18913611 -3.170798e-21)
(1.1390612 0.19821502 4.2286879e-20)
(1.1620887 0.20344592 -6.6320282e-21)
(1.1770369 0.20529096 -1.291655e-20)
(1.1855011 0.20430718 1.9759948e-20)
(1.1889819 0.20107944 4.4050202e-20)
(1.188807 0.19617477 -4.402366e-20)
(1.186087 0.19008205 -1.027321e-19)
(1.1816538 0.18303608 2.4681544e-20)
(0.073707669 -0.0034452482 -3.5043506e-20)
(0.21470716 -0.0040152537 -1.7410854e-19)
(0.35328503 0.011819427 8.2285949e-20)
(0.48665546 0.037011095 9.2965962e-20)
(0.61210265 0.066838143 5.8095525e-20)
(0.72719273 0.098485067 8.6347684e-21)
(0.82990094 0.12958969 -1.0653005e-19)
(0.91882046 0.15820982 0)
(0.99328862 0.18295532 -6.9005039e-20)
(1.0534033 0.20298679 -1.5264856e-20)
(1.0999476 0.21796154 5.4896886e-20)
(1.1342451 0.2279564 1.1014647e-20)
(1.1579768 0.23336903 -4.5776687e-20)
(1.1729883 0.23480828 -4.9253353e-20)
(1.1811178 0.2329886 2.4380355e-20)
(1.1840628 0.22864053 4.4994421e-20)
(1.1832934 0.22244552 -5.5810604e-20)
(1.1800145 0.21499856 -1.0790921e-19)
(1.1751662 0.20677296 -3.1506124e-21)
(1.1694229 0.19803436 2.7146286e-20)
(0.086839342 0.001961074 -3.5658467e-21)
(0.24748107 0.011823194 8.8062684e-20)
(0.3996648 0.037520689 -1.6416793e-20)
(0.54147736 0.07126939 -8.4530457e-20)
(0.67077918 0.1078541 4.5278399e-20)
(0.78565461 0.14418107 4.9271949e-20)
(0.88472569 0.17780623 5.5527138e-21)
(0.96736525 0.20690135 -9.9805469e-20)
(1.0337685 0.23035621 -2.5131706e-21)
(1.084895 0.24772376 5.0678416e-20)
(1.1223135 0.25910395 6.0065323e-21)
(1.1479908 0.26500697 -1.9786506e-20)
(1.1640669 0.26620696 -7.5962466e-20)
(1.1726532 0.26360269 -6.2716514e-21)
(1.1756772 0.25810144 4.3678519e-20)
(1.1747862 0.25053538 3.7144707e-20)
(1.1713068 0.24161243 1.9850094e-20)
(1.1662525 0.23189729 -5.3210442e-20)
(1.1603631 0.22180794 1.2964898e-20)
(1.1541407 0.21161106 8.2936395e-20)
(-0.0012969595 0.0014387381 -1.124215e-21)
(-0.0047590927 0.0031959101 2.0693977e-21)
(-0.010799901 0.0041463332 8.8847365e-22)
(-0.017799642 0.00455031 -2.4380239e-21)
(-0.02480128 0.0045754747 -1.4228641e-21)
(-0.031373821 0.0043346516 1.5580348e-21)
(-0.037245777 0.0039101995 -6.9033188e-21)
(-0.042238595 0.0033620712 -5.9867481e-21)
(-0.046251816 0.0027331497 1.1224527e-20)
(-0.049239107 0.0020538025 -9.7888322e-21)
(-0.051188294 0.001345287 -1.988106e-22)
(-0.05210853 0.00062224266 3.6861824e-21)
(-0.052021865 -0.00010542011 -6.3558668e-22)
(-0.050957503 -0.00083101171 2.293655e-20)
(-0.048948174 -0.001549694 3.0424195e-22)
(-0.046029602 -0.0022570226 -4.1107577e-20)
(-0.04224282 -0.0029483562 7.5839028e-21)
(-0.037625903 -0.0036216172 2.4001421e-20)
(-0.032186872 -0.004275316 -4.4113683e-20)
(-0.025984926 -0.0048612217 -2.7908972e-20)
(-0.0016567277 0.0041925621 -5.3902997e-21)
(-0.0054116205 0.0092924117 1.0888133e-20)
(-0.011246426 0.012037138 -1.0223124e-20)
(-0.017699942 0.01318427 3.9473978e-21)
(-0.023910289 0.013223636 4.840787e-21)
(-0.029496039 0.012486528 7.1693634e-22)
(-0.034220186 0.011214908 -2.2617939e-20)
(-0.037929213 0.0095848154 -2.0458084e-21)
(-0.040539618 0.0077221279 2.0255345e-20)
(-0.042016015 0.0057159458 -5.0706002e-21)
(-0.042352918 0.0036285856 -2.1865511e-20)
(-0.041563101 0.0015028943 4.9208e-21)
(-0.039670009 -0.00063222292 2.2742234e-20)
(-0.036702438 -0.0027573771 1.0360495e-20)
(-0.032690738 -0.0048586593 2.1972006e-20)
(-0.027667252 -0.006923536 -1.987662e-20)
(-0.021676047 -0.0089390341 -2.1790374e-20)
(-0.014764273 -0.010898582 2.1311564e-20)
(-0.0068665743 -0.012787634 2.6964634e-20)
(0.0022062033 -0.014440092 1.594013e-20)
(-0.0023093554 0.0065779961 -4.3717431e-21)
(-0.0065548375 0.014516778 -5.6478027e-21)
(-0.011918217 0.018754976 3.0624704e-22)
(-0.017245662 0.020473299 1.0896046e-21)
(-0.021858507 0.020441258 6.7171561e-21)
(-0.02547075 0.019185024 1.0705085e-20)
(-0.027912293 0.017089678 -3.7390914e-21)
(-0.029078286 0.014435472 -1.8974594e-20)
(-0.028918292 0.01142302 6.5695888e-21)
(-0.027418559 0.0081944745 1.2918937e-20)
(-0.02458724 0.0048492933 5.8640144e-21)
(-0.020445158 0.0014557898 1.8238592e-20)
(-0.015019802 -0.0019402121 1.7377552e-21)
(-0.0083409374 -0.0053084944 -3.4023387e-20)
(-0.00043679834 -0.0086278339 1.2139445e-21)
(0.0086644014 -0.011879474 -2.223874e-20)
(0.018911482 -0.015045844 -2.4603662e-20)
(0.030236076 -0.018118181 4.607707e-20)
(0.042827412 -0.021043353 2.5501401e-20)
(0.057363222 -0.023459342 1.3484049e-22)
(-0.0031364779 0.008390507 -5.3023755e-21)
(-0.0079130642 0.018380225 -8.5296899e-21)
(-0.012461144 0.023640175 4.3719222e-21)
(-0.016049176 0.025661663 4.1616358e-21)
(-0.018252247 0.025428144 2.0168097e-21)
(-0.018918086 0.023623711 7.351398e-21)
(-0.017971634 0.020750506 9.3497748e-21)
(-0.015378061 0.017174134 -1.3568552e-21)
(-0.011135489 0.013156798 -1.1527903e-20)
(-0.0052631341 0.0088846562 -2.9192114e-20)
(0.0022086586 0.0044880821 6.4219172e-23)
(0.011243717 5.6608121e-05 4.0871008e-20)
(0.021804594 -0.0043502836 -1.8457195e-20)
(0.03385416 -0.0086938913 -1.2351146e-20)
(0.047359822 -0.01294827 5.4836868e-22)
(0.062291745 -0.017092565 3.2459963e-20)
(0.078586513 -0.021112075 -1.4917214e-20)
(0.096136947 -0.025005335 -5.3603494e-20)
(0.11526485 -0.028654798 4.5993516e-20)
(0.1373514 -0.031380249 3.3183095e-20)
(-0.0039789684 0.0094883838 -6.8667103e-22)
(-0.0091078234 0.02053253 -1.2573633e-20)
(-0.012379423 0.026211276 -3.4268119e-20)
(-0.013557753 0.028192949 -5.7497754e-21)
(-0.012520169 0.027594931 -3.6295521e-21)
(-0.0092767299 0.025213215 6.3286072e-21)
(-0.0038699554 0.021634102 -4.6642869e-21)
(0.0036464558 0.017284418 -8.8388919e-21)
(0.013210932 0.012470793 2.1979131e-20)
(0.024758519 0.0074112364 5.0725922e-21)
(0.038225596 0.0022588131 -2.5395519e-20)
(0.053550108 -0.0028813132 1.1118348e-20)
(0.070672147 -0.0079393869 0)
(0.089534615 -0.012871389 1.2139511e-20)
(0.11008642 -0.017650256 -9.742885e-21)
(0.13228152 -0.022258289 -1.4404452e-20)
(0.15603133 -0.026694087 -1.5605962e-21)
(0.18116731 -0.030984216 -2.2364527e-21)
(0.20810522 -0.034942864 4.6339297e-20)
(0.23908672 -0.037426417 -1.0548692e-20)
(-0.0046538088 0.009801995 -7.5562895e-21)
(-0.0096901639 0.020787466 2.4597836e-20)
(-0.01106749 0.026204659 -1.0537994e-20)
(-0.0090779077 0.027762058 -2.7558948e-20)
(-0.0039273734 0.026625843 -2.7631664e-20)
(0.0041930293 0.023653724 -1.4970767e-20)
(0.015106418 0.019478987 -6.9319505e-22)
(0.02865479 0.014561424 5.567311e-21)
(0.044698891 0.0092319366 1.9678166e-20)
(0.06311436 0.0037266302 7.3779866e-21)
(0.083787257 -0.0017886472 -7.2095829e-21)
(0.10661192 -0.0071999611 -2.0119883e-21)
(0.1314873 -0.012432334 -3.8334137e-20)
(0.15831448 -0.017440187 -1.274191e-20)
(0.1869984 -0.022199088 1.8835637e-20)
(0.21744897 -0.026699782 -2.1115469e-20)
(0.24952881 -0.030964942 -9.0112807e-21)
(0.28298167 -0.035078372 3.0553646e-20)
(0.31824219 -0.038820453 5.0673e-20)
(0.35847302 -0.040466852 3.3722645e-21)
(-0.0049692055 0.0093313187 1.6826042e-20)
(-0.0091720432 0.019126635 1.4505398e-20)
(-0.0078445918 0.02359102 5.1297685e-20)
(-0.0018073725 0.024345861 2.3462952e-20)
(0.0083974956 0.022522872 1.8311374e-22)
(0.022387787 0.018990435 -3.9511248e-20)
(0.039840338 0.01439007 -2.4389906e-20)
(0.06048045 0.0091855795 1.0496245e-20)
(0.084073582 0.0037101023 1.4445495e-20)
(0.11041503 -0.0017988411 -1.3149172e-20)
(0.1393194 -0.0071748247 -4.4184233e-20)
(0.17061194 -0.012304675 2.9719629e-20)
(0.20412102 -0.017115673 2.0083315e-20)
(0.23967247 -0.021566832 -2.7648768e-20)
(0.27708935 -0.02564217 1.1696436e-20)
(0.31619556 -0.029347452 2.4288328e-20)
(0.35676783 -0.032739446 8.1076442e-21)
(0.39843312 -0.035991156 -1.1821218e-20)
(0.44155167 -0.038928372 -1.4230886e-20)
(0.49014121 -0.039222305 5.941804e-21)
(-0.0047351452 0.0081354195 1.1125092e-20)
(-0.007052364 0.015685123 -2.3430916e-20)
(-0.0019893275 0.018567742 8.6357622e-21)
(0.0091255028 0.018205674 3.3690292e-20)
(0.025419084 0.015618115 5.2275936e-20)
(0.046314415 0.011635505 2.0335533e-20)
(0.071332614 0.0068703637 -5.8827709e-21)
(0.10006386 0.0017592053 -1.2318481e-20)
(0.13215763 -0.0033862769 -6.2275026e-21)
(0.16730318 -0.0083459375 3.4343055e-20)
(0.20521151 -0.012968493 -4.5320566e-21)
(0.24560146 -0.017154851 -1.6700294e-20)
(0.28818856 -0.020846391 -1.9752528e-20)
(0.33267698 -0.024017672 -4.7605427e-20)
(0.37875814 -0.026671817 2.3318539e-20)
(0.4261184 -0.028840551 -1.414859e-20)
(0.47440508 -0.030627901 2.610061e-20)
(0.52311017 -0.032332261 2.1124458e-20)
(0.57244539 -0.033951367 -8.5833809e-20)
(0.62708983 -0.032714473 -9.2616091e-23)
(-0.0037702902 0.0063196586 2.1980853e-20)
(-0.0028418767 0.010731236 -2.6245263e-20)
(0.0072159082 0.011544136 -4.5137038e-20)
(0.024595861 0.0098828947 -2.7331357e-20)
(0.048107226 0.0065833031 -2.0496512e-21)
(0.076973014 0.0023911867 1.3081188e-20)
(0.11054465 -0.0021478485 -2.8373329e-21)
(0.14825772 -0.0066553992 1.8165547e-20)
(0.18961689 -0.010867706 8.8889884e-21)
(0.23416886 -0.0146048 -1.1410862e-20)
(0.28147798 -0.017750894 8.9119536e-21)
(0.3311082 -0.020239708 -2.3974637e-20)
(0.38260986 -0.022044002 8.0832899e-21)
(0.43551071 -0.02316909 1.6813628e-20)
(0.48931431 -0.023648988 -2.6484133e-21)
(0.54350953 -0.023548584 1.6664346e-21)
(0.59755357 -0.023019376 -3.157697e-22)
(0.65077606 -0.022469001 1.9664662e-20)
(0.70319931 -0.022094827 4.0577492e-21)
(0.75992287 -0.019204216 -6.5174759e-22)
(-0.0019028682 0.004025096 2.3757834e-20)
(0.003917142 0.0046536691 5.7326812e-20)
(0.020432104 0.0031410376 -4.937573e-20)
(0.045388083 0.00022007486 -9.9721828e-21)
(0.077288228 -0.0035288952 2.0306395e-20)
(0.11515048 -0.0074907933 2.1487469e-21)
(0.15813987 -0.011226088 -2.9888904e-20)
(0.20550932 -0.014450343 6.9985825e-21)
(0.25658097 -0.016980227 7.1337848e-21)
(0.31071416 -0.018706382 -2.6328046e-20)
(0.36727794 -0.019577803 1.2977906e-21)
(0.42563335 -0.019589216 -3.7287535e-20)
(0.48512317 -0.018770825 -3.6459473e-20)
(0.54506787 -0.017180094 6.5914254e-20)
(0.60476759 -0.014894524 5.5841616e-21)
(0.66350841 -0.012010938 -1.5260223e-20)
(0.72054646 -0.0086872557 1.9435023e-20)
(0.77503258 -0.0052302359 -9.2233718e-22)
(0.82648935 -0.0016601893 2.0400619e-20)
(0.87865492 0.0035774992 -1.9673594e-20)
(-0.01860251 -0.0051430606 5.8725084e-20)
(-0.009915132 -0.0056830684 1.5879107e-20)
(0.00017603255 -0.0061217 -3.5366084e-20)
(0.011319364 -0.0063909438 1.6912466e-20)
(0.023248285 -0.0065726742 0)
(0.03590455 -0.0066944343 0)
(0.049228988 -0.0067589008 -2.3147392e-20)
(0.063142321 -0.0067738965 -1.6627047e-20)
(0.077574556 -0.006748826 1.9283694e-20)
(0.092466678 -0.0066904918 1.8327296e-20)
(0.10776424 -0.0066040932 1.0587237e-21)
(0.12341601 -0.0064942044 -1.0402029e-20)
(0.13937427 -0.0063647987 8.4149883e-21)
(0.15559448 -0.0062192396 1.8390645e-20)
(0.1720346 -0.0060604082 -5.2944765e-21)
(0.18865479 -0.0058908092 -1.0264678e-20)
(0.20541721 -0.005712635 -4.3580232e-21)
(0.22228582 -0.0055278174 -4.4566896e-21)
(0.23922636 -0.0053380731 7.3998874e-22)
(0.25620624 -0.0051449385 1.24334e-21)
(0.27319458 -0.0049497964 2.6092753e-21)
(0.29016225 -0.0047538963 6.7372923e-21)
(0.30708193 -0.0045583687 2.3150979e-22)
(0.32392821 -0.0043642367 -3.5035476e-21)
(0.34067767 -0.0041724231 1.5292513e-22)
(0.35730897 -0.0039837573 -5.8730773e-22)
(0.373803 -0.0037989793 1.2676055e-21)
(0.39014288 -0.0036187442 1.0645858e-21)
(0.40631414 -0.003443626 -1.350323e-21)
(0.42230475 -0.0032741219 -1.1996505e-22)
(0.4381052 -0.0031106566 6.6045429e-24)
(0.45370858 -0.0029535874 -3.6478871e-22)
(0.46911067 -0.0028032098 -4.3810112e-22)
(0.48431001 -0.0026597639 7.7671621e-23)
(0.499308 -0.0025234414 -1.4654112e-22)
(0.51410902 -0.002394394 -2.3554742e-22)
(0.52872062 -0.0022727417 2.7337383e-22)
(0.54315373 -0.0021585831 3.1908046e-22)
(0.55742277 -0.0020520098 -2.662233e-23)
(0.57154683 -0.0019531098 -1.9949195e-22)
(0.58554766 -0.0018620206 2.8742303e-23)
(0.59945833 -0.0017788383 -4.3181245e-23)
(0.61330021 -0.0017040118 1.2495422e-22)
(0.62715688 -0.0016372717 5.5674005e-24)
(0.64096247 -0.0015811919 -2.1438173e-22)
(0.65512918 -0.0015308203 -8.6626816e-24)
(0.66876286 -0.0015058296 6.6763448e-24)
(0.68475739 -0.0014578237 -1.6566576e-23)
(0.69557525 -0.0015395041 2.8822987e-23)
(0.7219918 -0.0014157027 5.4108806e-22)
(0.010851676 -0.015149951 -1.2839792e-20)
(0.018662862 -0.016787169 -6.3695259e-20)
(0.028353456 -0.018075254 -3.0757655e-20)
(0.039061799 -0.018843575 3.8743887e-20)
(0.050409795 -0.019366096 1.4768457e-20)
(0.062418135 -0.019722781 -1.8353655e-20)
(0.075058395 -0.019913691 4.7272923e-21)
(0.088254094 -0.019960357 2.5639141e-20)
(0.10194261 -0.019890808 7.3662889e-23)
(0.11607425 -0.019724556 -7.7307225e-21)
(0.13060146 -0.019476229 -1.3099534e-20)
(0.14547821 -0.019158909 -8.6161451e-21)
(0.16066124 -0.018784056 1.7924285e-20)
(0.17610972 -0.018361374 9.07138e-21)
(0.19178466 -0.017899198 -1.6637901e-20)
(0.20764869 -0.017404808 -6.094226e-21)
(0.22366602 -0.016884605 3.2346163e-21)
(0.23980229 -0.016344252 8.4349833e-21)
(0.25602461 -0.015788799 7.0643124e-21)
(0.27230153 -0.015222785 -7.0865413e-21)
(0.28860311 -0.014650306 -3.2545674e-21)
(0.30490098 -0.014075075 1.4236406e-21)
(0.32116845 -0.01350046 4.5095438e-22)
(0.3373806 -0.012929516 1.2449867e-21)
(0.35351439 -0.012365003 2.0134465e-22)
(0.36954879 -0.011809407 -3.4781003e-22)
(0.38546487 -0.01126495 -7.5383105e-22)
(0.4012459 -0.010733603 1.0364146e-21)
(0.41687741 -0.010217096 8.735877e-22)
(0.43234737 -0.0097169309 -2.0155936e-22)
(0.44764615 -0.0092343943 5.9979092e-22)
(0.4627667 -0.0087705721 -2.4754852e-22)
(0.47770457 -0.0083263665 -4.1670609e-22)
(0.49245802 -0.0079025148 -6.6827743e-22)
(0.50702814 -0.0074996103 4.6866932e-22)
(0.52141893 -0.0071181259 -7.0361944e-23)
(0.53563753 -0.0067584417 2.1937078e-22)
(0.54969441 -0.0064208719 -5.3190179e-22)
(0.5636035 -0.00610571 4.9769147e-22)
(0.57738336 -0.0058132377 7.8881042e-23)
(0.59105518 -0.005543884 -1.0115913e-22)
(0.60465136 -0.0052979509 2.6893601e-22)
(0.61819273 -0.0050767973 3.8006008e-22)
(0.63176175 -0.0048796242 3.01764e-22)
(0.64529294 -0.0047141468 3.3637036e-22)
(0.65919381 -0.0045655521 -4.9870279e-23)
(0.67258005 -0.0044926449 2.3808278e-22)
(0.68831109 -0.0043508559 2.3788925e-22)
(0.69894147 -0.0045956581 -4.033114e-22)
(0.72497522 -0.0042285939 -1.887905e-23)
(0.068333949 -0.02425571 9.5171493e-21)
(0.074389411 -0.026997039 3.3307122e-21)
(0.083161709 -0.029075137 -1.2282653e-20)
(0.0929521 -0.030256378 -1.2514297e-21)
(0.10310363 -0.031073007 1.5094885e-20)
(0.11379228 -0.031653193 -1.4996736e-20)
(0.12505805 -0.031975046 -3.0088904e-20)
(0.13682603 -0.032067998 1.4627925e-20)
(0.14904466 -0.031978091 1.8349841e-20)
(0.16168158 -0.031735497 -1.1707957e-20)
(0.17470176 -0.031361793 1.0277863e-21)
(0.18806817 -0.030876846 8.7217545e-21)
(0.20174523 -0.030298417 -1.5416828e-20)
(0.21569857 -0.029641603 3.0254763e-21)
(0.2298944 -0.02891943 7.6172417e-21)
(0.24429958 -0.028143376 -3.6497878e-23)
(0.25888172 -0.027323626 2.2275295e-22)
(0.27360928 -0.026469261 -7.5311923e-21)
(0.28845164 -0.025588443 3.9987584e-21)
(0.3033792 -0.024688553 8.6232084e-21)
(0.31836352 -0.023776298 -3.9049224e-21)
(0.33337746 -0.022857785 -2.2424515e-21)
(0.34839529 -0.021938585 1.0043422e-21)
(0.36339287 -0.021023764 -1.7659193e-21)
(0.37834774 -0.020117923 1.3750056e-21)
(0.39323928 -0.019225216 7.31215e-22)
(0.40804883 -0.018349369 1.6537866e-21)
(0.42275977 -0.017493694 -2.0911044e-21)
(0.43735766 -0.016661114 2.3958137e-21)
(0.4518303 -0.015854173 5.9200316e-22)
(0.46616787 -0.01507506 5.0813531e-22)
(0.48036294 -0.014325635 3.330062e-22)
(0.49441062 -0.013607453 1.0024741e-21)
(0.50830863 -0.012921796 -1.5796022e-21)
(0.52205743 -0.012269709 4.4079893e-22)
(0.53566032 -0.011652036 1.8443551e-22)
(0.54912363 -0.011069467 -7.1838948e-23)
(0.56245699 -0.010522581 5.6270665e-23)
(0.57567339 -0.010011924 -4.6566728e-22)
(0.58879038 -0.0095380182 2.5521478e-22)
(0.6018281 -0.0091016298 -4.151319e-23)
(0.61481773 -0.0087033096 6.4232144e-22)
(0.62777905 -0.0083453627 -3.1658047e-22)
(0.64079242 -0.0080265029 6.6746327e-23)
(0.65379302 -0.0077595595 9.5018984e-23)
(0.66717959 -0.007520043 -1.5570693e-22)
(0.68008639 -0.0074051416 -3.2315722e-22)
(0.69530695 -0.0071763479 9.7577506e-22)
(0.70557328 -0.0075830406 3.6018457e-22)
(0.73086429 -0.0069865223 -1.2446907e-21)
(0.15133905 -0.031787618 1.5206893e-21)
(0.15475512 -0.035611296 -1.161727e-20)
(0.16192601 -0.038392418 6.665739e-21)
(0.17022967 -0.039884191 -1.3413181e-20)
(0.17852624 -0.04094812 -1.9895852e-21)
(0.18719552 -0.0417521 9.2485664e-21)
(0.19639408 -0.042228984 -9.8857522e-21)
(0.20604473 -0.04240662 1.5427203e-21)
(0.21610382 -0.04234676 1.3007108e-20)
(0.22656149 -0.042087746 3.4569944e-21)
(0.23739913 -0.04165493 -6.262207e-21)
(0.24859028 -0.041072345 -2.9164751e-21)
(0.26010821 -0.040362271 -5.8514773e-21)
(0.27192615 -0.039543913 -6.5414717e-21)
(0.28401636 -0.03863398 3.2086211e-21)
(0.29635045 -0.03764738 7.8181001e-22)
(0.30889986 -0.036597532 1.4098105e-21)
(0.32163609 -0.035496556 -3.4216436e-21)
(0.33453096 -0.034355463 -4.3488101e-21)
(0.34755683 -0.033184308 2.4209416e-21)
(0.36068678 -0.031992309 3.3274877e-21)
(0.37389489 -0.030787921 -1.6453188e-21)
(0.38715638 -0.029578903 1.6376654e-21)
(0.40044777 -0.028372353 -4.2781221e-22)
(0.41374712 -0.027174744 -4.1098031e-21)
(0.4270341 -0.025991946 -3.1217099e-21)
(0.44029018 -0.024829247 -2.2682116e-22)
(0.45349873 -0.02369137 4.0601175e-22)
(0.46664511 -0.022582497 -2.2967107e-21)
(0.47971684 -0.021506287 -9.7346231e-22)
(0.49270363 -0.020465913 2.3542795e-22)
(0.50559748 -0.019464083 -1.3890605e-21)
(0.51839282 -0.018503087 -2.5338096e-23)
(0.53108656 -0.017584832 -5.0205813e-22)
(0.54367823 -0.016710896 -5.009016e-22)
(0.55617015 -0.015882574 -6.7583383e-22)
(0.56856753 -0.015100947 -1.0848867e-21)
(0.58087879 -0.014366939 -3.6755822e-23)
(0.59311567 -0.013681424 -4.4038127e-24)
(0.60529428 -0.013045239 -7.0881471e-22)
(0.61743334 -0.012459557 -6.5056054e-23)
(0.62956232 -0.011925246 -5.139374e-22)
(0.64169956 -0.011445608 -7.5833069e-22)
(0.65392249 -0.011018946 6.6397127e-22)
(0.66616727 -0.01066312 2.4838831e-23)
(0.67882009 -0.010344356 3.8151172e-22)
(0.69104192 -0.010196745 -3.5269735e-22)
(0.70553132 -0.0098921755 -6.5125915e-22)
(0.71527653 -0.010457898 1.1642814e-22)
(0.73949905 -0.0096551031 7.0786084e-22)
(0.25624502 -0.036984777 -2.1038446e-20)
(0.25611751 -0.041855149 4.7845646e-20)
(0.26082488 -0.045238571 1.0400391e-20)
(0.26695343 -0.046962458 -1.5866709e-20)
(0.27270145 -0.048261072 -2.0577224e-21)
(0.27864111 -0.049321084 2.6177727e-21)
(0.28509459 -0.050013246 -1.6972454e-21)
(0.29198332 -0.050353131 -4.7208541e-21)
(0.29925985 -0.05041133 -4.0473714e-21)
(0.30693577 -0.050231297 -1.2307184e-20)
(0.31501046 -0.049839792 1.8092294e-20)
(0.32346727 -0.049262327 6.6105492e-21)
(0.33228689 -0.048523553 -1.6931122e-20)
(0.34144908 -0.047645416 1.0351693e-20)
(0.35093133 -0.046647372 8.3984452e-21)
(0.36070919 -0.045547061 -8.1973022e-22)
(0.37075708 -0.044360646 -3.1058039e-21)
(0.38104884 -0.043102984 -3.9308296e-21)
(0.39155807 -0.041787768 -1.4404511e-21)
(0.40225844 -0.040427656 -1.279194e-21)
(0.41312402 -0.039034364 -3.1362333e-21)
(0.42412957 -0.037618738 0)
(0.43525078 -0.036190797 -1.4033372e-21)
(0.44646442 -0.034759763 4.0243401e-21)
(0.45774864 -0.03333409 5.6042709e-21)
(0.46908304 -0.03192148 -9.561532e-22)
(0.48044886 -0.030528903 -3.1256928e-21)
(0.49182912 -0.029162611 3.271782e-21)
(0.50320871 -0.027828167 1.8892173e-22)
(0.51457454 -0.02653047 3.7180313e-21)
(0.52591558 -0.02527379 -5.5084197e-22)
(0.53722302 -0.024061805 1.856262e-21)
(0.54849031 -0.022897652 -9.0551919e-22)
(0.55971333 -0.021783979 3.7564882e-22)
(0.57089044 -0.020723004 -5.3102826e-22)
(0.58202268 -0.019716585 6.3780861e-22)
(0.59311393 -0.018766296 5.6559173e-22)
(0.60417115 -0.017873511 4.8627438e-22)
(0.61520453 -0.017039527 -1.2416534e-21)
(0.62622853 -0.016265592 9.1586269e-22)
(0.6372601 -0.015553374 -5.0598576e-22)
(0.6483267 -0.014904139 -1.6580093e-21)
(0.65944496 -0.014322244 2.2248105e-21)
(0.67068868 -0.013805685 -9.0013177e-23)
(0.68199536 -0.01337721 -2.8826177e-22)
(0.69373541 -0.012994329 -1.4750623e-23)
(0.70510368 -0.012825911 -3.4380212e-22)
(0.7186782 -0.012460376 -1.0723516e-21)
(0.7277726 -0.013180739 8.7760021e-22)
(0.75064878 -0.012202548 -7.206247e-23)
(0.37831809 -0.038903179 -1.7612727e-20)
(0.3737662 -0.044836402 1.289032e-20)
(0.37502655 -0.048760694 3.0233134e-21)
(0.37818772 -0.050728249 -7.6833594e-21)
(0.38070521 -0.052329102 1.2134229e-20)
(0.3832506 -0.053731519 7.8452675e-21)
(0.38633944 -0.054748972 -1.271406e-20)
(0.38990868 -0.055381281 -6.1127067e-21)
(0.39389097 -0.055694911 1.2794274e-20)
(0.39830734 -0.055732317 -1.54815e-20)
(0.40317268 -0.055520558 -1.4176983e-20)
(0.40847809 -0.055085189 1.432082e-20)
(0.41420805 -0.054451402 6.8823101e-21)
(0.42034564 -0.053642718 -4.3427885e-21)
(0.42687114 -0.052680763 -1.8077667e-21)
(0.43376203 -0.051585575 -4.0324402e-21)
(0.44099397 -0.050375883 5.2854327e-21)
(0.44854158 -0.049069237 3.7075065e-21)
(0.45637889 -0.04768208 -3.2581423e-21)
(0.46447975 -0.046229804 3.1737735e-21)
(0.47281821 -0.044726803 2.8404173e-21)
(0.4813688 -0.043186511 -3.2940854e-21)
(0.49010686 -0.041621421 3.7615897e-22)
(0.49900875 -0.040043099 -3.3038769e-21)
(0.50805202 -0.038462195 7.6344317e-21)
(0.51721564 -0.036888452 6.373475e-21)
(0.52648014 -0.035330722 9.0147215e-22)
(0.53582772 -0.033796984 -1.8478163e-21)
(0.54524238 -0.032294363 4.0328299e-21)
(0.55471005 -0.030829172 7.8141173e-21)
(0.56421866 -0.029406944 2.4552187e-21)
(0.57375825 -0.028032483 3.6695521e-21)
(0.58332108 -0.026709926 2.1933171e-21)
(0.59290172 -0.025442801 8.5494378e-22)
(0.60249716 -0.024234106 -2.7890561e-22)
(0.61210701 -0.023086387 3.2085117e-21)
(0.6217336 -0.022001842 7.410858e-22)
(0.63138227 -0.020982404 3.536296e-22)
(0.6410615 -0.020029912 6.6898683e-23)
(0.65078392 -0.019146126 1.342285e-21)
(0.66056459 -0.018333303 5.6604496e-23)
(0.6704287 -0.017593201 6.6819843e-22)
(0.68039103 -0.016931288 -1.7724497e-22)
(0.6905213 -0.016345364 -4.829381e-22)
(0.7007587 -0.015862885 -2.7155103e-22)
(0.71145515 -0.015433309 -8.1633485e-22)
(0.72184549 -0.015257696 4.0488704e-22)
(0.73436576 -0.01484843 -2.7481252e-22)
(0.74271277 -0.015717774 -4.9635724e-22)
(0.76402227 -0.014600431 4.0149943e-22)
(0.51156769 -0.036602965 3.637751e-21)
(0.50191342 -0.043622136 -1.9032106e-20)
(0.49875748 -0.04807841 -2.3270064e-21)
(0.49815096 -0.050464121 5.5146769e-21)
(0.49688406 -0.052578266 3.0875832e-21)
(0.49553456 -0.054498942 -1.7679134e-23)
(0.49478268 -0.056014275 6.2705631e-21)
(0.49462496 -0.057124747 7.6905064e-21)
(0.49497089 -0.057882264 9.9195576e-21)
(0.49582789 -0.058319342 -1.1350082e-20)
(0.49721608 -0.058461773 -2.1802105e-20)
(0.49913136 -0.058335308 -4.0090735e-21)
(0.50155823 -0.057965239 1.6118966e-20)
(0.50447877 -0.057376238 1.2955516e-20)
(0.50787269 -0.056592124 -5.9296159e-21)
(0.51171688 -0.055635605 1.3321702e-21)
(0.51598617 -0.054528312 -3.7632861e-21)
(0.52065414 -0.053290857 2.3906436e-21)
(0.52569378 -0.051942825 -2.9460125e-22)
(0.5310778 -0.050502749 -1.904733e-21)
(0.53677908 -0.048988099 8.0522078e-21)
(0.54277098 -0.047415282 -3.3664546e-22)
(0.54902763 -0.045799631 4.6429751e-22)
(0.55552415 -0.044155396 -6.2362417e-22)
(0.56223686 -0.042495745 -4.4441919e-21)
(0.56914348 -0.040832761 4.3598261e-21)
(0.57622323 -0.039177455 1.9374647e-21)
(0.58345703 -0.037539785 -3.4514636e-21)
(0.59082756 -0.03592868 -4.2463692e-21)