/*--------------------------------*- C++ -*----------------------------------*\
  =========                 |
  \\      /  F ield         | OpenFOAM: The Open Source CFD Toolbox
   \\    /   O peration     | Website:  https://openfoam.org
    \\  /    A nd           | Version:  6
     \\/     M anipulation  |
\*---------------------------------------------------------------------------*/
FoamFile
{
    version     2.0;
    format      ascii;
    class       volVectorField;
    location    "53";
    object      U_0;
}
// * * * * * * * * * * * * * * * * * * * * * * * * * * * * * * * * * * * * * //

dimensions      [0 1 -1 0 0 0 0];

internalField   nonuniform List<vector> 
9200
(
(0.0010574938 0.0014103537 -5.9341982e-20)
(0.013754853 -0.0021001484 4.6168762e-20)
(0.038484011 -0.0059397401 -3.8601239e-20)
(0.07256245 -0.0098684595 -6.0407705e-20)
(0.11419062 -0.013627604 1.8880795e-20)
(0.1621621 -0.016776269 3.2830727e-20)
(0.21542215 -0.019021129 -1.2305807e-20)
(0.27299666 -0.020211215 9.2982428e-21)
(0.33397313 -0.020282486 1.6843226e-20)
(0.39746866 -0.019235041 1.4888269e-21)
(0.46260614 -0.017121751 -2.1519809e-20)
(0.52850485 -0.014037339 2.073373e-20)
(0.59428287 -0.010107547 -4.0539328e-20)
(0.65906947 -0.0054780809 -2.1206476e-20)
(0.72202604 -0.0003028151 5.92375e-21)
(0.78237282 0.0052659223 -2.5229967e-20)
(0.83943525 0.011100775 2.5327839e-20)
(0.89276856 0.017247945 2.23915e-20)
(0.9419741 0.023840095 -2.7058456e-22)
(0.98433333 0.027501893 -1.6325516e-21)
(0.0052830027 -0.0013629216 -1.709958e-20)
(0.027079273 -0.0090481634 3.9849616e-20)
(0.061904836 -0.014905982 2.3636591e-20)
(0.10667251 -0.019302748 -1.1596564e-19)
(0.1592758 -0.022377298 -1.2760965e-20)
(0.21825148 -0.023915526 7.346268e-20)
(0.28227937 -0.023820488 -3.5563901e-20)
(0.35010634 -0.022124467 -8.410902e-21)
(0.42053339 -0.018931367 3.4377785e-20)
(0.49239157 -0.014398019 -4.3381844e-20)
(0.56453049 -0.008726275 -3.0435397e-20)
(0.63582497 -0.0021526984 7.2176282e-20)
(0.70519508 0.0050631171 3.8427317e-20)
(0.77163534 0.012650159 -6.8245535e-20)
(0.83424885 0.020335963 1.4690937e-20)
(0.89228085 0.027851332 -3.6899754e-20)
(0.94516049 0.034944531 -1.3825929e-20)
(0.99260193 0.041454634 7.1369467e-20)
(1.034474 0.046965541 2.9881801e-20)
(1.0689796 0.048333684 -8.3733729e-20)
(0.010904569 -0.0040651279 3.685249e-20)
(0.044114661 -0.01550429 2.509553e-21)
(0.090822652 -0.022665752 2.2399841e-20)
(0.14758767 -0.026645024 9.832942e-22)
(0.21200459 -0.028064552 -4.0882196e-20)
(0.28232655 -0.027001228 1.8613293e-20)
(0.35693101 -0.023614939 1.3455715e-20)
(0.43425068 -0.01817927 -5.0454876e-20)
(0.51277679 -0.011019589 5.7417716e-20)
(0.59105419 -0.0024959682 1.4308583e-20)
(0.66769152 0.0070045256 -5.4489058e-20)
(0.74138981 0.017081399 -1.8317146e-20)
(0.81098109 0.027337221 9.0473702e-21)
(0.87546938 0.037393988 2.3548606e-20)
(0.93406717 0.046907275 -1.1424978e-20)
(0.98622026 0.055575521 2.8006906e-20)
(1.0316226 0.063154552 -2.0273644e-20)
(1.070248 0.069505049 -7.049318e-20)
(1.1022287 0.074354057 -2.3940991e-20)
(1.1267079 0.075816441 4.8833942e-20)
(0.018021196 -0.0064494746 2.4556849e-20)
(0.064988401 -0.020777445 5.1148716e-20)
(0.12523879 -0.028183882 1.99227e-20)
(0.19505048 -0.030618483 1.3009931e-20)
(0.27173617 -0.029275307 1.7308525e-20)
(0.35324631 -0.024591916 -4.7826714e-20)
(0.43763662 -0.017049592 -2.5709254e-20)
(0.52302224 -0.00722111 0)
(0.60760966 0.0042997675 1.3989431e-20)
(0.68972108 0.016917947 -5.8981219e-21)
(0.76783165 0.030048517 -9.8268228e-20)
(0.84061866 0.043136501 -1.5811084e-20)
(0.90701055 0.055679147 6.5392497e-20)
(0.96622579 0.067245759 4.4995938e-22)
(1.0177944 0.077492455 -1.5798353e-21)
(1.0615575 0.086169742 2.2061911e-20)
(1.097646 0.093129898 -5.2984947e-21)
(1.1264571 0.098355793 -6.1324182e-20)
(1.1485384 0.10182062 -4.6096621e-20)
(1.1638619 0.10257574 6.9786685e-20)
(0.026663404 -0.0082356063 -3.9244502e-21)
(0.089609847 -0.024119665 -5.1343458e-21)
(0.16477736 -0.030388297 5.6709938e-20)
(0.24826817 -0.029959193 1.8573574e-20)
(0.33715027 -0.024681789 -3.2021866e-20)
(0.42907779 -0.015424709 1.2189371e-20)
(0.52180453 -0.0030514835 2.647099e-21)
(0.61318 0.011519864 3.3714079e-20)
(0.70121979 0.027401616 5.6782184e-21)
(0.78416325 0.043762896 -1.3268361e-20)
(0.86053344 0.05984719 6.0424255e-20)
(0.92919409 0.074997408 -5.8209826e-20)
(0.98938971 0.088679593 -1.3271456e-19)
(1.0407599 0.10049875 -5.6017337e-21)
(1.0833244 0.11020448 8.3537632e-20)
(1.1174401 0.11768561 0)
(1.1437366 0.12296004 1.0160172e-20)
(1.163047 0.12617782 -1.5533069e-20)
(1.1762935 0.12752134 -8.6426051e-21)
(1.1840412 0.12661197 2.1078359e-20)
(0.03677247 -0.0091196146 -5.4324121e-21)
(0.11763767 -0.024768061 4.3658278e-21)
(0.20867243 -0.028253371 -8.7789252e-21)
(0.30594684 -0.023546143 2.8525884e-20)
(0.40635671 -0.013218678 -2.9458147e-20)
(0.50731045 0.0013698855 -1.69681e-20)
(0.60633865 0.018931493 3.7435372e-20)
(0.70114726 0.03818622 4.7634694e-21)
(0.78972857 0.057966253 -2.4549036e-20)
(0.87044519 0.077250658 7.0112753e-20)
(0.94209615 0.095186092 4.9323904e-22)
(1.0039581 0.11110988 -8.0793914e-20)
(1.055791 0.12456436 0)
(1.0978046 0.13529623 3.9730529e-20)
(1.1305915 0.14324086 5.5517642e-21)
(1.1550357 0.14849383 -7.7910033e-20)
(1.1722086 0.15127751 -1.967264e-20)
(1.1832726 0.15191837 -1.2522467e-20)
(1.1893736 0.15076127 -1.4776511e-20)
(1.1913713 0.14776551 4.0594638e-20)
(0.048186793 -0.0087946668 -1.7300665e-20)
(0.14846235 -0.022003595 -2.2401447e-21)
(0.25577519 -0.020890085 3.0427343e-20)
(0.36634825 -0.010513447 3.7540113e-20)
(0.47702337 0.005797081 -1.998501e-20)
(0.58507194 0.026160688 -6.9340291e-20)
(0.68794812 0.048860082 -2.8088385e-20)
(0.78340566 0.072284401 7.9169704e-20)
(0.86963965 0.095052904 8.6294534e-21)
(0.94537717 0.11605305 -2.4946549e-20)
(1.0099231 0.13445433 1.3665526e-20)
(1.0631577 0.14971532 -4.3473923e-21)
(1.1054847 0.16157346 0)
(1.1377371 0.17001437 2.7313065e-20)
(1.1610557 0.17522533 -7.9647228e-20)
(1.176759 0.17753951 -3.1604917e-20)
(1.1862199 0.17738094 8.1389251e-20)
(1.1907652 0.17522405 -4.32215e-21)
(1.1915929 0.17151743 3.5685257e-21)
(1.1896227 0.16640698 2.7235416e-20)
(0.06063538 -0.0069787277 -3.2455487e-20)
(0.18121105 -0.015223056 -8.1765567e-20)
(0.30459753 -0.0076443507 2.5608005e-21)
(0.42739177 0.0096446522 7.030731e-20)
(0.54654914 0.0325765 6.2564134e-20)
(0.65937478 0.058764691 -7.1725114e-20)
(0.7634565 0.086112582 -2.5677838e-22)
(0.85683826 0.11276856 8.5815638e-20)
(0.93816981 0.13726226 4.8987649e-20)
(1.0067751 0.15853302 -5.4421359e-20)
(1.0626487 0.17591993 -9.2675554e-20)
(1.106387 0.18913509 -3.1708415e-21)
(1.1390671 0.19821374 4.2287465e-20)
(1.1620942 0.2034444 -6.6321252e-21)
(1.1770421 0.20528919 -1.2916725e-20)
(1.185506 0.20430518 1.9760201e-20)
(1.1889865 0.20107723 4.4050827e-20)
(1.1888113 0.19617236 -4.4024265e-20)
(1.186091 0.19007947 -1.0273361e-19)
(1.1816576 0.18303336 2.4681967e-20)
(0.073708296 -0.0034452934 -3.504374e-20)
(0.21470893 -0.0040153504 -1.7410935e-19)
(0.35328785 0.011819353 8.2286621e-20)
(0.48665923 0.037011067 9.2966692e-20)
(0.61210724 0.066838151 5.8095984e-20)
(0.72719797 0.098485079 8.6348569e-21)
(0.82990665 0.12958966 -1.0653112e-19)
(0.91882645 0.15820969 0)
(0.99329472 0.18295504 -6.9005983e-20)
(1.0534094 0.20298633 -1.5265085e-20)
(1.0999535 0.21796085 5.4897598e-20)
(1.1342508 0.22795545 1.1014799e-20)
(1.1579822 0.23336783 -4.5777286e-20)
(1.1729933 0.23480683 -4.9253985e-20)
(1.1811226 0.23298692 2.4380696e-20)
(1.1840672 0.22863863 4.4995053e-20)
(1.1832976 0.22244344 -5.5811378e-20)
(1.1800185 0.21499631 -1.0791068e-19)
(1.1751699 0.20677057 -3.1506091e-21)
(1.1694264 0.19803184 2.7146654e-20)
(0.086840036 0.0019610728 -3.5659238e-21)
(0.24748299 0.011823218 8.8063233e-20)
(0.3996678 0.037520792 -1.6416562e-20)
(0.54148131 0.071269576 -8.453127e-20)
(0.67078389 0.10785434 4.5278818e-20)
(0.78565988 0.14418131 4.9272304e-20)
(0.88473133 0.17780641 5.5527764e-21)
(0.96737108 0.20690141 -9.9806584e-20)
(1.0337744 0.23035608 -2.5132011e-21)
(1.0849007 0.24772342 5.067906e-20)
(1.122319 0.25910336 6.0066096e-21)
(1.147996 0.26500612 -1.9786762e-20)
(1.1640719 0.26620585 -7.5963415e-20)
(1.1726579 0.26360134 -6.2717109e-21)
(1.1756816 0.25809988 4.3679053e-20)
(1.1747903 0.25053362 3.7145158e-20)
(1.1713108 0.2416105 1.9850301e-20)
(1.1662562 0.23189522 -5.3211236e-20)
(1.1603666 0.22180574 1.2964924e-20)
(1.154144 0.21160875 8.2937414e-20)
(-0.0012969732 0.0014387532 -1.124218e-21)
(-0.0047591414 0.0031959417 2.0694153e-21)
(-0.010800007 0.004146372 8.8850655e-22)
(-0.017799811 0.0045503502 -2.4380132e-21)
(-0.024801507 0.0045755123 -1.4229058e-21)
(-0.031374097 0.0043346839 1.5580788e-21)
(-0.037246092 0.0039102247 -6.9034411e-21)
(-0.042238936 0.0033620879 -5.9868563e-21)
(-0.046252169 0.002733157 1.122472e-20)
(-0.049239456 0.0020537995 -9.789002e-21)
(-0.051188625 0.0013452731 -1.988123e-22)
(-0.052108827 0.00062221707 3.686252e-21)
(-0.052022112 -0.00010545803 -6.3559635e-22)
(-0.050957682 -0.00083106268 2.2936985e-20)
(-0.048948269 -0.0015497588 3.0424273e-22)
(-0.046029595 -0.0022571021 -4.1108408e-20)
(-0.042242691 -0.0029484514 7.5840706e-21)
(-0.037625633 -0.003621729 2.4001929e-20)
(-0.03218644 -0.0042754453 -4.4114651e-20)
(-0.02598431 -0.0048613687 -2.7909601e-20)
(-0.0016567445 0.0041926055 -5.390369e-21)
(-0.005411673 0.0092925019 1.0888218e-20)
(-0.011246529 0.012037248 -1.0223241e-20)
(-0.017700098 0.013184383 3.9474875e-21)
(-0.02391049 0.013223741 4.840892e-21)
(-0.029496273 0.012486617 7.1694991e-22)
(-0.03422044 0.011214976 -2.2618337e-20)
(-0.037929471 0.0095848577 -2.0458408e-21)
(-0.040539864 0.0077221416 2.0255683e-20)
(-0.042016231 0.0057159286 -5.0706859e-21)
(-0.042353087 0.0036285354 -2.1865891e-20)
(-0.041563204 0.001502809 4.9208866e-21)
(-0.039670026 -0.00063234534 2.2742628e-20)
(-0.036702349 -0.0027575389 1.0360687e-20)
(-0.032690522 -0.0048588629 2.1972441e-20)
(-0.027666887 -0.006923784 -1.9877012e-20)
(-0.02167551 -0.0089393293 -2.1790809e-20)
(-0.014763541 -0.010898927 2.1312034e-20)
(-0.0068656192 -0.012788032 2.6965206e-20)
(0.0022074143 -0.014440542 1.5940445e-20)
(-0.0023093774 0.0065780621 -4.3717982e-21)
(-0.0065548955 0.014516914 -5.6478365e-21)
(-0.011918314 0.018755142 3.0624348e-22)
(-0.01724579 0.020473468 1.0895816e-21)
(-0.021858654 0.020441411 6.7172495e-21)
(-0.025470899 0.019185149 1.0705232e-20)
(-0.027912426 0.017089767 -3.7391514e-21)
(-0.029078382 0.014435518 -1.8974883e-20)
(-0.028918331 0.011423019 6.569693e-21)
(-0.027418518 0.0081944211 1.2919144e-20)
(-0.024587096 0.0048491846 5.8641251e-21)
(-0.020444888 0.0014556223 1.8238885e-20)
(-0.01501938 -0.0019404417 1.7377853e-21)
(-0.0083403375 -0.00530879 -3.4023973e-20)
(-0.00043599342 -0.0086281993 1.2139888e-21)
(0.0086654397 -0.011879914 -2.2239107e-20)
(0.018912783 -0.015046362 -2.460417e-20)
(0.030237669 -0.018118784 4.6078022e-20)
(0.042829333 -0.021044043 2.5501964e-20)
(0.057365521 -0.023460119 1.3488698e-22)
(-0.0031365055 0.008390587 -5.302446e-21)
(-0.0079131262 0.018380387 -8.5298674e-21)
(-0.012461227 0.02364037 4.3719689e-21)
(-0.01604926 0.025661858 4.1616922e-21)
(-0.018252312 0.025428314 2.0168328e-21)
(-0.018918109 0.023623841 7.3515097e-21)
(-0.017971589 0.020750584 9.349912e-21)
(-0.015377921 0.017174152 -1.356876e-21)
(-0.011135228 0.013156748 -1.1528072e-20)
(-0.005262724 0.0088845342 -2.9192557e-20)
(0.0022092472 0.0044878825 6.422797e-23)
(0.011244514 5.6326243e-05 4.0871647e-20)
(0.021805632 -0.0043506526 -1.8457468e-20)
(0.033855471 -0.0086943523 -1.2351349e-20)
(0.047361439 -0.012948829 5.483494e-22)
(0.062293704 -0.017093227 3.2460544e-20)
(0.078588849 -0.021112846 -1.4917539e-20)
(0.096139694 -0.025006223 -5.3604471e-20)
(0.11526805 -0.028655809 4.5994361e-20)
(0.13735512 -0.031381379 3.3183723e-20)
(-0.0039790002 0.0094884679 -6.8666657e-22)
(-0.0091078836 0.020532696 -1.2573777e-20)
(-0.012379479 0.02621147 -3.4268575e-20)
(-0.013557773 0.028193134 -5.7498696e-21)
(-0.012520122 0.027595081 -3.6295794e-21)
(-0.009276584 0.025213312 6.3286937e-21)
(-0.0038696781 0.02163413 -4.6643531e-21)
(0.0036468976 0.017284368 -8.8390086e-21)
(0.013211572 0.012470658 2.1979423e-20)
(0.024759392 0.007411008 5.0726503e-21)
(0.038226738 0.0022584857 -2.5395907e-20)
(0.053551555 -0.0028817454 1.1118495e-20)
(0.070673936 -0.0079399297 0)
(0.089536784 -0.012872048 1.2139695e-20)
(0.11008901 -0.017651038 -9.7430372e-21)
(0.13228457 -0.022259201 -1.44047e-20)
(0.15603486 -0.026695136 -1.5605461e-21)
(0.18117137 -0.030985411 -2.2365206e-21)
(0.20810985 -0.034944213 4.6340006e-20)
(0.23909198 -0.037427915 -1.0548983e-20)
(-0.0046538411 0.0098020735 -7.5563657e-21)
(-0.0096902121 0.020787613 2.4598137e-20)
(-0.011067502 0.026204822 -1.0538136e-20)
(-0.009077839 0.0277622 -2.7559279e-20)
(-0.0039271816 0.026625935 -2.7631972e-20)
(0.0041933851 0.023653747 -1.4970949e-20)
(0.015106979 0.019478927 -6.9320431e-22)
(0.028655595 0.014561269 5.5673744e-21)
(0.044699981 0.0092316774 1.9678395e-20)
(0.063115775 0.0037262595 7.3780782e-21)
(0.083789038 -0.0017891363 -7.2096687e-21)
(0.1066141 -0.007200575 -2.0119944e-21)
(0.13148994 -0.012433079 -3.8334661e-20)
(0.1583176 -0.01744107 -1.2742087e-20)
(0.18700205 -0.022200114 1.8835951e-20)
(0.21745317 -0.026700959 -2.1115815e-20)
(0.24953359 -0.030966277 -9.0114216e-21)
(0.28298708 -0.035079874 3.0554062e-20)
(0.31824823 -0.038822133 5.0673741e-20)
(0.35847975 -0.040468707 3.3723247e-21)
(-0.0049692332 0.009331383 1.6826199e-20)
(-0.0091720651 0.019126743 1.4505536e-20)
(-0.0078445382 0.023591124 5.1298246e-20)
(-0.0018071848 0.024345926 2.3463228e-20)
(0.0083978698 0.022522871 1.8311593e-22)
(0.022388397 0.01899035 -3.95117e-20)
(0.039841233 0.014389886 -2.4390187e-20)
(0.060481675 0.0091852857 1.0496356e-20)
(0.084075184 0.0037096893 1.4445656e-20)
(0.11041706 -0.001799381 -1.3149302e-20)
(0.13932189 -0.0071754985 -4.4184769e-20)
(0.17061492 -0.012305489 2.9720002e-20)
(0.20412455 -0.017116634 2.0083545e-20)
(0.23967657 -0.021567946 -2.7649127e-20)
(0.27709406 -0.025643443 1.1696607e-20)
(0.3162009 -0.02934889 2.4288662e-20)
(0.35677382 -0.032741055 8.1077742e-21)
(0.39843976 -0.035992943 -1.1821429e-20)
(0.44155896 -0.03893035 -1.4231035e-20)
(0.49014917 -0.039224477 5.9420601e-21)
(-0.0047351616 0.0081354633 1.1125207e-20)
(-0.0070523416 0.015685175 -2.3431204e-20)
(-0.0019891807 0.018567765 8.6358203e-21)
(0.0091258446 0.018205637 3.369067e-20)
(0.025419683 0.015617996 5.2276496e-20)
(0.046315329 0.011635287 2.033575e-20)
(0.071333897 0.0068700331 -5.8828405e-21)
(0.10006556 0.0017587525 -1.2318599e-20)
(0.1321598 -0.0033868599 -6.2275829e-21)
(0.16730586 -0.0083466578 3.4343431e-20)
(0.20521475 -0.012969357 -4.5321367e-21)
(0.24560528 -0.017155864 -1.6700504e-20)
(0.288193 -0.02084756 -1.9752744e-20)
(0.33268206 -0.024019003 -4.7606022e-20)
(0.37876387 -0.026673315 2.3318833e-20)
(0.42612478 -0.028842221 -1.4148784e-20)
(0.47441211 -0.030629748 2.6101005e-20)
(0.52311782 -0.032334288 2.1124767e-20)
(0.57245362 -0.033953586 -8.5834779e-20)
(0.62709861 -0.032716898 -9.2558665e-23)
(-0.0037702876 0.0063196775 2.1981059e-20)
(-0.0028417892 0.010731222 -2.6245557e-20)
(0.0072161795 0.011544064 -4.5137494e-20)
(0.024596397 0.0098827415 -2.7331643e-20)
(0.048108097 0.006583051 -2.0496721e-21)
(0.076974283 0.0023908227 1.3081302e-20)
(0.11054637 -0.0021483341 -2.8373457e-21)
(0.14825995 -0.0066560139 1.816572e-20)
(0.18961967 -0.010868456 8.8890632e-21)
(0.23417224 -0.014605691 -1.1410975e-20)
(0.28148198 -0.017751931 8.9120796e-21)
(0.33111285 -0.020240897 -2.3974899e-20)
(0.38261517 -0.022045348 8.0834117e-21)
(0.43551669 -0.023170599 1.6813839e-20)
(0.48932093 -0.023650666 -2.6484465e-21)
(0.54351677 -0.023550436 1.6664515e-21)
(0.59756138 -0.023021407 -3.1575595e-22)
(0.65078439 -0.022471214 1.9664936e-20)
(0.70320807 -0.02209723 4.0578019e-21)
(0.75993198 -0.019206825 -6.5203849e-22)
(-0.0019028384 0.0040250879 2.3758076e-20)
(0.0039173174 0.0046535856 5.7327427e-20)
(0.020432533 0.0031408658 -4.9376215e-20)
(0.045388855 0.00021980233 -9.9722814e-21)
(0.077289418 -0.0035292795 2.030658e-20)
(0.11515216 -0.007491297 2.1487667e-21)
(0.15814209 -0.011226717 -2.9889176e-20)
(0.20551212 -0.014451101 6.9986328e-21)
(0.2565844 -0.016981118 7.1338735e-21)
(0.31071824 -0.01870741 -2.6328318e-20)
(0.3672827 -0.019578974 1.2978094e-21)
(0.42563878 -0.019590534 -3.7287952e-20)
(0.48512926 -0.018772295 -3.6459909e-20)
(0.54507459 -0.017181725 6.5915104e-20)
(0.60477489 -0.014896323 5.5842405e-21)
(0.66351622 -0.012012915 -1.5260486e-20)
(0.72055471 -0.0086894188 1.9435285e-20)
(0.77504118 -0.005232593 -9.2234992e-22)
(0.8264982 -0.00166275 2.0400751e-20)
(0.87866389 0.0035747211 -1.9674036e-20)
(-0.018601667 -0.0051432196 5.8726467e-20)
(-0.0099140111 -0.0056832452 1.5879461e-20)
(0.00017747586 -0.0061218943 -3.5366925e-20)
(0.011321171 -0.0063911531 1.6912921e-20)
(0.023250496 -0.0065728977 0)
(0.035907207 -0.0066946717 0)
(0.049232136 -0.0067591518 -2.3148035e-20)
(0.063146004 -0.0067741604 -1.6627512e-20)
(0.077578822 -0.0067491024 1.9284298e-20)
(0.092471576 -0.0066907803 1.8327871e-20)
(0.10776983 -0.0066043934 1.0587473e-21)
(0.12342233 -0.006494516 -1.0402347e-20)
(0.13938139 -0.0063651214 8.4153214e-21)
(0.15560245 -0.0062195732 1.8391239e-20)
(0.17204349 -0.0060607525 -5.2947316e-21)
(0.18866466 -0.0058911641 -1.026502e-20)
(0.20542812 -0.0057130006 -4.3581704e-21)
(0.22229786 -0.0055281939 -4.4568088e-21)
(0.2392396 -0.0053384606 7.4000164e-22)
(0.25622076 -0.0051453373 1.2433973e-21)
(0.27321047 -0.004950207 2.6094414e-21)
(0.29017961 -0.0047543192 6.7376201e-21)
(0.30710086 -0.0045588047 2.3144226e-22)
(0.32394882 -0.0043646865 -3.5037549e-21)
(0.34070008 -0.0041728877 1.5291497e-22)
(0.35733333 -0.0039842378 -5.8734888e-22)
(0.37382943 -0.0037994769 1.2677035e-21)
(0.39017156 -0.0036192603 1.0646375e-21)
(0.40634524 -0.0034441623 -1.3505311e-21)
(0.42233847 -0.0032746802 -1.1995677e-22)
(0.43814175 -0.0031112389 6.4890764e-24)
(0.45374821 -0.0029541958 -3.6484195e-22)
(0.46915364 -0.0028038468 -4.3823285e-22)
(0.48435663 -0.0026604323 7.7761058e-23)
(0.4993586 -0.0025241443 -1.4657569e-22)
(0.51416399 -0.0023951348 -2.3559679e-22)
(0.52878037 -0.0022735245 2.7344486e-22)
(0.54321875 -0.0021594124 3.1917562e-22)
(0.55749361 -0.0020528909 -2.6698484e-23)
(0.57162411 -0.0019540488 -1.9967054e-22)
(0.5856321 -0.0018630248 2.8731833e-23)
(0.59955076 -0.001779916 -4.3187099e-23)
(0.61340155 -0.0017051728 1.2507326e-22)
(0.62726829 -0.0016385262 5.4734225e-24)
(0.64108508 -0.0015825545 -2.1477377e-22)
(0.65526489 -0.0015322978 -8.6483574e-24)
(0.66891221 -0.0015074579 6.7120062e-24)
(0.68492569 -0.0014595642 -1.6613977e-23)
(0.6957557 -0.0015415328 2.8837335e-23)
(0.72221101 -0.0014178127 5.4201244e-22)
(0.010853159 -0.015150437 -1.2840137e-20)
(0.01866463 -0.016787707 -6.3696716e-20)
(0.028355559 -0.018075843 -3.0758457e-20)
(0.039064279 -0.018844207 3.8744883e-20)
(0.05041269 -0.019366769 1.4768851e-20)
(0.062421482 -0.019723494 -1.835421e-20)
(0.075062239 -0.019914444 4.7274985e-21)
(0.088258477 -0.019961148 2.5639858e-20)
(0.10194758 -0.019891636 7.3593677e-23)
(0.11607985 -0.019725419 -7.7309914e-21)
(0.13060774 -0.019477127 -1.3099828e-20)
(0.14548523 -0.019159841 -8.6164907e-21)
(0.16066905 -0.01878502 1.7924859e-20)
(0.17611838 -0.018362371 9.0719184e-21)
(0.19179423 -0.017900226 -1.6638339e-20)
(0.20765924 -0.017405868 -6.0944363e-21)
(0.2236776 -0.016885697 3.2346933e-21)
(0.23981498 -0.016345376 8.435227e-21)
(0.25603849 -0.015789956 7.0646256e-21)
(0.27231669 -0.015223976 -7.0869824e-21)
(0.28861963 -0.014651532 -3.2549013e-21)
(0.30491895 -0.014076338 1.4238861e-21)
(0.32118797 -0.013501762 4.5120379e-22)
(0.33740179 -0.012930859 1.245119e-21)
(0.35353737 -0.01236639 2.0141389e-22)
(0.3695737 -0.011810842 -3.4789364e-22)
(0.38549185 -0.011266436 -7.5394854e-22)
(0.40127509 -0.010735145 1.0366727e-21)
(0.41690901 -0.010218698 8.7378298e-22)
(0.43238157 -0.0097185986 -2.0175803e-22)
(0.44768316 -0.0092361335 5.9997886e-22)
(0.46280677 -0.0087723896 -2.4758454e-22)
(0.47774796 -0.0083282698 -4.1689166e-22)
(0.49250504 -0.0079045121 -6.6851402e-22)
(0.50707911 -0.0075017109 4.6877955e-22)
(0.52147424 -0.0071203404 -7.0583962e-23)
(0.5356976 -0.006760782 2.1960698e-22)
(0.54975972 -0.0064233518 -5.3226681e-22)
(0.5636746 -0.0061083454 4.9820425e-22)
(0.57746086 -0.005816047 7.892671e-23)
(0.59113979 -0.0055468886 -1.0114077e-22)
(0.60474391 -0.0053011755 2.6931522e-22)
(0.61829414 -0.0050802711 3.8065834e-22)
(0.63187316 -0.0048833775 3.0230652e-22)
(0.64541547 -0.0047182228 3.3706587e-22)
(0.65932934 -0.004569971 -4.994074e-23)
(0.67272913 -0.0044975138 2.3865165e-22)
(0.68847895 -0.0043560587 2.3850803e-22)
(0.69912138 -0.0046017221 -4.039841e-22)
(0.72519349 -0.004234897 -1.8868471e-23)
(0.068336597 -0.024256543 9.5173878e-21)
(0.074392357 -0.026997952 3.3308448e-21)
(0.083165011 -0.02907613 -1.2283102e-20)
(0.092955801 -0.030257439 -1.2515256e-21)
(0.10310776 -0.031074133 1.5095348e-20)
(0.11379687 -0.031654384 -1.4997145e-20)
(0.12506315 -0.0319763 -3.0089825e-20)
(0.13683168 -0.032069312 1.4628428e-20)
(0.1490509 -0.031979464 1.835047e-20)
(0.16168845 -0.031736926 -1.1708368e-20)
(0.17470931 -0.031363278 1.0278191e-21)
(0.18807645 -0.030878386 8.7218879e-21)
(0.20175429 -0.03030001 -1.5417445e-20)
(0.21570847 -0.029643249 3.0259171e-21)
(0.2299052 -0.028921128 7.6176135e-21)
(0.24431134 -0.028145126 -3.6758022e-23)
(0.2588945 -0.027325428 2.2258907e-22)
(0.27362316 -0.026471116 -7.5316381e-21)
(0.28846668 -0.025590352 3.999286e-21)
(0.30339549 -0.024690518 8.6237825e-21)
(0.31838115 -0.023778321 -3.9051936e-21)
(0.33339652 -0.02285987 -2.2425669e-21)
(0.34841588 -0.021940734 1.0043117e-21)
(0.3634151 -0.021025982 -1.7661175e-21)
(0.37837173 -0.020120214 1.3750927e-21)
(0.39326517 -0.019227586 7.3126632e-22)
(0.40807675 -0.018351823 1.6542878e-21)
(0.42278988 -0.017496241 -2.0916541e-21)
(0.43739014 -0.016663761 2.3965001e-21)
(0.45186535 -0.015856929 5.9216392e-22)
(0.46620569 -0.015077935 5.085526e-22)
(0.48040378 -0.01432864 3.3305423e-22)
(0.49445474 -0.013610601 1.0029938e-21)
(0.50835634 -0.0129251 -1.5804443e-21)
(0.52210905 -0.012273185 4.4108225e-22)
(0.53571622 -0.011655701 1.8473872e-22)
(0.54918423 -0.01107334 -7.1947286e-23)
(0.56252277 -0.010526687 5.6144501e-23)
(0.57574489 -0.010016288 -4.6604669e-22)
(0.58886822 -0.0095426704 2.5550989e-22)
(0.60191297 -0.0091066059 -4.1537681e-23)
(0.61491044 -0.0087086501 6.4336959e-22)
(0.62788051 -0.008351116 -3.1712481e-22)
(0.64090375 -0.0080327188 6.6812061e-23)
(0.65391533 -0.0077663091 9.5244272e-23)
(0.66731471 -0.0075273592 -1.5602957e-22)
(0.68023485 -0.0074132017 -3.2388098e-22)
(0.69547387 -0.0071849585 9.7812063e-22)
(0.70575207 -0.0075930746 3.6078625e-22)
(0.73108064 -0.0069969433 -1.246817e-21)
(0.1513432 -0.031788822 1.5207627e-21)
(0.15475959 -0.0356126 -1.1617457e-20)
(0.16193085 -0.038393825 6.665818e-21)
(0.17023493 -0.039885687 -1.341351e-20)
(0.17853195 -0.040949699 -1.9896363e-21)
(0.1872017 -0.041753763 9.2488973e-21)
(0.19640077 -0.04223073 -9.8861998e-21)
(0.20605198 -0.042408447 1.542631e-21)
(0.21611166 -0.042348664 1.3007495e-20)
(0.22656996 -0.042089726 3.4571968e-21)
(0.23740827 -0.041656985 -6.2624041e-21)
(0.24860014 -0.041074473 -2.9166741e-21)
(0.26011884 -0.040364471 -5.851516e-21)
(0.2719376 -0.039546185 -6.5417982e-21)
(0.2840287 -0.038636322 3.2085174e-21)
(0.29636373 -0.037649794 7.8156402e-22)
(0.30891414 -0.036600018 1.4099705e-21)
(0.32165144 -0.035499115 -3.4217841e-21)
(0.33454746 -0.034358096 -4.3492176e-21)
(0.34757454 -0.033187018 2.4211705e-21)
(0.36070581 -0.0319951 3.327884e-21)
(0.37391531 -0.030790797 -1.6456357e-21)
(0.38717829 -0.029581868 1.6378642e-21)
(0.40047129 -0.028375413 -4.2795472e-22)
(0.41377236 -0.027177906 -4.1105496e-21)
(0.4270612 -0.025995218 -3.1220611e-21)
(0.44031928 -0.024832638 -2.2696462e-22)
(0.45352997 -0.023694889 4.0592456e-22)
(0.46667868 -0.022586155 -2.2970573e-21)
(0.47975293 -0.021510098 -9.7393289e-22)
(0.49274244 -0.020469889 2.3545694e-22)
(0.50563925 -0.01946824 -1.3896188e-21)
(0.51843781 -0.018507443 -2.5463661e-23)
(0.53113507 -0.017589406 -5.023711e-22)
(0.54373059 -0.016715709 -5.0101987e-22)
(0.55622673 -0.01588765 -6.7646318e-22)
(0.56862873 -0.015106314 -1.0858732e-21)
(0.58094509 -0.014372629 -3.6682494e-23)
(0.59318759 -0.013687473 -4.4057289e-24)
(0.60537244 -0.013051688 -7.0958391e-22)
(0.61751841 -0.012466457 -6.4931827e-23)
(0.6296551 -0.011932652 -5.1468279e-22)
(0.64180094 -0.011453586 -7.5967261e-22)
(0.65403356 -0.011027565 6.6514398e-22)
(0.66628909 -0.010672477 2.487378e-23)
(0.67895445 -0.010354498 3.8231415e-22)
(0.69118933 -0.010207915 -3.534969e-22)
(0.70569672 -0.0099041058 -6.5278596e-22)
(0.71545354 -0.010471793 1.1681548e-22)
(0.73971245 -0.0096695212 7.0908483e-22)
(0.25625079 -0.03698637 -2.1038957e-20)
(0.2561236 -0.041856853 4.7846607e-20)
(0.26083136 -0.045240392 1.0400584e-20)
(0.26696035 -0.046964382 -1.5867085e-20)
(0.27270882 -0.048263094 -2.0578531e-21)
(0.27864896 -0.049323206 2.6177513e-21)
(0.28510296 -0.050015467 -1.6973822e-21)
(0.29199224 -0.050355448 -4.7209836e-21)
(0.29926935 -0.050413742 -4.047489e-21)
(0.30694589 -0.050233802 -1.2307556e-20)
(0.31502125 -0.049842388 1.8093025e-20)
(0.32347877 -0.049265013 6.6108832e-21)
(0.33229914 -0.048526328 -1.693169e-20)
(0.34146214 -0.04764828 1.035182e-20)
(0.35094525 -0.046650325 8.3984949e-21)
(0.36072402 -0.045550102 -8.1950307e-22)
(0.37077289 -0.044363778 -3.105741e-21)
(0.38106569 -0.043106208 -3.9312551e-21)
(0.39157603 -0.041791087 -1.4406477e-21)
(0.40227759 -0.040431073 -1.2793818e-21)
(0.41314445 -0.039037883 -3.1366601e-21)
(0.42415137 -0.037622365 0)
(0.43527403 -0.036194538 -1.4035633e-21)
(0.44648924 -0.034763625 4.024707e-21)
(0.45777514 -0.033338082 5.6050526e-21)
(0.46911134 -0.031925613 -9.5621364e-22)
(0.48047911 -0.030533186 -3.1264739e-21)
(0.49186147 -0.029167058 3.2727533e-21)
(0.50324333 -0.027832792 1.8866568e-22)
(0.51461162 -0.02653529 3.7191578e-21)
(0.52595533 -0.025278821 -5.5090869e-22)
(0.53726566 -0.024067068 1.8568206e-21)
(0.54853611 -0.022903168 -9.0594366e-22)
(0.55976257 -0.021789773 3.7598755e-22)
(0.57094345 -0.020729103 -5.3141806e-22)
(0.58207982 -0.01972302 6.3811359e-22)
(0.59317561 -0.018773103 5.660301e-22)
(0.60423783 -0.017880728 4.866943e-22)
(0.61527672 -0.017047202 -1.2427971e-21)
(0.62630682 -0.016273777 9.1680479e-22)
(0.63734516 -0.015562131 -5.065366e-22)
(0.6484193 -0.014913539 -1.6602755e-21)
(0.65954595 -0.014332371 2.2281422e-21)
(0.67079913 -0.013816625 -9.0113335e-23)
(0.68211629 -0.013389087 -2.8878227e-22)
(0.69386853 -0.013007198 -1.4773829e-23)
(0.70524947 -0.012840082 -3.4463633e-22)
(0.71884139 -0.012475507 -1.0747655e-21)
(0.72794705 -0.013198347 8.7823089e-22)
(0.75085813 -0.012220801 -7.2191173e-23)
(0.37832536 -0.038905155 -1.7613163e-20)
(0.3737738 -0.044838494 1.2890535e-20)
(0.37503454 -0.048762909 3.0234923e-21)
(0.37819614 -0.050730577 -7.6835375e-21)
(0.38071409 -0.052331542 1.2134519e-20)
(0.38325996 -0.053734072 7.8454678e-21)
(0.38634931 -0.054751638 -1.2714306e-20)
(0.38991908 -0.055384057 -6.1128735e-21)
(0.39390195 -0.055697797 1.2794636e-20)
(0.39831893 -0.05573531 -1.5482163e-20)
(0.40318491 -0.055523658 -1.417741e-20)
(0.40849101 -0.055088394 1.4321541e-20)
(0.41422171 -0.054454713 6.8825471e-21)
(0.42036008 -0.053646134 -4.3433159e-21)
(0.42688642 -0.052684284 -1.8075883e-21)
(0.4337782 -0.051589202 -4.0323415e-21)
(0.44101109 -0.050379618 5.2853585e-21)
(0.44855971 -0.049073083 3.7076568e-21)
(0.4563981 -0.047686039 -3.258209e-21)
(0.46450012 -0.046233881 3.1739119e-21)
(0.47283981 -0.044731003 2.840702e-21)
(0.48139173 -0.043190841 -3.2944072e-21)
(0.49013121 -0.041625889 3.7618091e-22)
(0.49903462 -0.040047714 -3.3040616e-21)
(0.50807952 -0.038466967 7.6359512e-21)
(0.51724491 -0.036893394 6.3745184e-21)
(0.52651131 -0.035335847 9.0183133e-22)
(0.53586093 -0.033802307 -1.8481319e-21)
(0.5452778 -0.032299902 4.0341367e-21)
(0.55474787 -0.030834946 7.8166012e-21)
(0.56425908 -0.029412974 2.4558211e-21)
(0.5738015 -0.028038794 3.6709623e-21)
(0.58336741 -0.026716544 2.1941108e-21)
(0.59295141 -0.025449755 8.5538222e-22)
(0.60255054 -0.024241429 -2.7896747e-22)
(0.61216442 -0.023094118 3.2104771e-21)
(0.62179543 -0.022010021 7.4157427e-22)
(0.63144899 -0.020991081 3.5386633e-22)
(0.64113359 -0.020039141 6.6941358e-23)
(0.65086197 -0.019155971 1.3437175e-21)
(0.66064923 -0.018343839 5.6641111e-23)
(0.67052068 -0.017604511 6.6912547e-22)
(0.68049119 -0.016943473 -1.7744053e-22)
(0.69063063 -0.016358526 -4.8380187e-22)
(0.70087818 -0.015877172 -2.7203643e-22)
(0.71158641 -0.015448786 -8.1790574e-22)
(0.72198897 -0.015274732 4.0579922e-22)
(0.73452593 -0.014866617 -2.7540261e-22)
(0.74288379 -0.015738911 -4.9674188e-22)
(0.7642264 -0.014622321 4.0221637e-22)
(0.51157616 -0.03660529 3.6377161e-21)
(0.50192223 -0.043624582 -1.9032378e-20)
(0.49876665 -0.048080981 -2.3270757e-21)
(0.49816055 -0.050466814 5.5147794e-21)
(0.4968941 -0.052581082 3.0877132e-21)
(0.49554506 -0.054501884 -1.7557613e-23)
(0.49479367 -0.056017342 6.2708661e-21)
(0.49463648 -0.057127938 7.6907506e-21)
(0.49498296 -0.057885577 9.9197866e-21)
(0.49584056 -0.058322778 -1.1350457e-20)
(0.49722937 -0.05846533 -2.1802941e-20)
(0.49914533 -0.058338986 -4.0093517e-21)
(0.50157291 -0.057969037 1.6119647e-20)
(0.5044942 -0.057380157 1.2956069e-20)
(0.50788893 -0.056596164 -5.9297018e-21)
(0.51173398 -0.055639769 1.3319813e-21)
(0.51600419 -0.0545326 -3.7636795e-21)
(0.52067314 -0.053295273 2.3912024e-21)
(0.52571383 -0.051947374 -2.9461418e-22)
(0.53109896 -0.050507435 -1.9048842e-21)
(0.53680144 -0.048992929 8.0530774e-21)
(0.54279463 -0.047420263 -3.3681317e-22)
(0.54905266 -0.045804773 4.6447557e-22)
(0.55555066 -0.044160709 -6.2349818e-22)
(0.56226495 -0.042501241 -4.444745e-21)
(0.56917328 -0.040838455 4.360421e-21)
(0.57625488 -0.039183364 1.9376029e-21)
(0.58349067 -0.037545925 -3.4520314e-21)
(0.59086335 -0.035935072 -4.2469101e-21)