/*--------------------------------*- C++ -*----------------------------------*\
  =========                 |
  \\      /  F ield         | OpenFOAM: The Open Source CFD Toolbox
   \\    /   O peration     | Website:  https://openfoam.org
    \\  /    A nd           | Version:  6
     \\/     M anipulation  |
\*---------------------------------------------------------------------------*/
FoamFile
{
    version     2.0;
    format      ascii;
    class       volVectorField;
    location    "336";
    object      U;
}
// * * * * * * * * * * * * * * * * * * * * * * * * * * * * * * * * * * * * * //

dimensions      [0 1 -1 0 0 0 0];

internalField   nonuniform List<vector> 
9200
(
(0.0010393461 0.0014199823 -5.9201839e-20)
(0.013676067 -0.0020583664 4.6042531e-20)
(0.038313165 -0.0058665675 -3.8501734e-20)
(0.072274435 -0.0097635044 -6.0257747e-20)
(0.11376474 -0.013490028 1.8826963e-20)
(0.16158088 -0.016605656 3.2743878e-20)
(0.21467148 -0.018817283 -1.2268007e-20)
(0.27206607 -0.019973888 9.268861e-21)
(0.33285622 -0.02001122 1.6803426e-20)
(0.39616346 -0.018929048 1.4848072e-21)
(0.46111555 -0.016779811 -2.1456336e-20)
(0.52683686 -0.013657726 2.0670003e-20)
(0.59245067 -0.0096879912 -4.0422144e-20)
(0.65709129 -0.0050157678 -2.1133899e-20)
(0.7199247 0.00020557207 5.9046518e-21)
(0.780175 0.0058241076 -2.5131671e-20)
(0.83717058 0.011712827 2.5217117e-20)
(0.89046874 0.017918528 2.2243195e-20)
(0.93967069 0.024573431 -2.9930373e-22)
(0.98205184 0.028293402 -1.6692007e-21)
(0.0052521801 -0.0013462729 -1.7059352e-20)
(0.0269625 -0.0089890257 3.9747708e-20)
(0.061670114 -0.014809763 2.3576294e-20)
(0.10629489 -0.019172267 -1.1569757e-19)
(0.15873565 -0.022213993 -1.2727087e-20)
(0.21753351 -0.023720681 7.3297077e-20)
(0.28137295 -0.023595091 -3.5476398e-20)
(0.349006 -0.021868958 -8.3905566e-21)
(0.41923919 -0.018645516 3.4287539e-20)
(0.49090943 -0.014080832 -4.3259578e-20)
(0.5628723 -0.0083759408 -3.033848e-20)
(0.63400845 -0.0017665831 7.192143e-20)
(0.70324328 0.005488407 3.8294046e-20)
(0.76957579 0.013118646 -6.7976549e-20)
(0.83211244 0.020852097 1.4623688e-20)
(0.89010035 0.028419721 -3.6733392e-20)
(0.94296915 0.035569689 -1.3777196e-20)
(0.99043228 0.042140903 7.0974745e-20)
(1.032356 0.047715327 2.9641919e-20)
(1.0669348 0.049139709 -8.3478205e-20)
(0.010858426 -0.0040424156 3.6773455e-20)
(0.043953412 -0.015431076 2.504736e-21)
(0.090515433 -0.022552281 2.234171e-20)
(0.14711139 -0.026497356 9.811682e-22)
(0.21134254 -0.027886294 -4.0773934e-20)
(0.28146766 -0.02679511 1.8576403e-20)
(0.35587039 -0.023382723 1.3420299e-20)
(0.43299006 -0.017921532 -5.0327702e-20)
(0.51132476 -0.010735645 5.7261857e-20)
(0.58942612 -0.002183874 1.4256688e-20)
(0.66590914 0.0073479122 -5.4300708e-20)
(0.73948034 0.01746027 -1.8237402e-20)
(0.80897596 0.027756569 9.0591607e-21)
(0.87340262 0.037859278 2.3444735e-20)
(0.9319736 0.04742405 -1.1362503e-20)
(0.98413365 0.056148979 2.7877721e-20)
(1.029574 0.063789179 -2.0188234e-20)
(1.0682645 0.070204398 -7.0123551e-20)
(1.1003321 0.075119384 -2.379627e-20)
(1.1249112 0.076641245 4.8659728e-20)
(0.017957214 -0.006422163 2.4508014e-20)
(0.064776994 -0.020694798 5.1039222e-20)
(0.12485228 -0.028060845 1.9881694e-20)
(0.19446965 -0.030464063 1.2990096e-20)
(0.27094931 -0.029094838 1.7275703e-20)
(0.35224878 -0.024388975 -4.772017e-20)
(0.43643137 -0.016825968 -2.5646855e-20)
(0.52162006 -0.0069766662 0)
(0.60602894 0.0045670363 1.3920617e-20)
(0.68798705 0.017211736 -5.8523394e-21)
(0.76597516 0.030373926 -9.7934942e-20)
(0.83867445 0.043499636 -1.5774817e-20)
(0.90501524 0.056086621 6.5103194e-20)
(0.96421568 0.067704139 4.8442728e-22)
(1.0158035 0.078007719 -1.5725564e-21)
(1.0596155 0.086746797 2.1957491e-20)
(1.0957773 0.093772233 -5.264721e-21)
(1.12468 0.099065339 -6.1029716e-20)
(1.1468647 0.10259708 -4.585125e-20)
(1.1622957 0.10341386 6.9520553e-20)
(0.026579419 -0.0082056878 -3.91942e-21)
(0.089344018 -0.024033505 -5.1256308e-21)
(0.16430753 -0.030264986 5.6599407e-20)
(0.24758119 -0.029810017 1.8539324e-20)
(0.3362416 -0.024513024 -3.1955066e-20)
(0.42795124 -0.015239856 1.2163839e-20)
(0.52047261 -0.0028513593 2.6402861e-21)
(0.61166356 0.011737099 3.3609169e-20)
(0.6995471 0.027640146 5.6599503e-21)
(0.78236836 0.044028773 -1.3204739e-20)
(0.85865404 0.060147728 6.0154035e-20)
(0.92726909 0.075340475 -5.8009355e-20)
(0.98745674 0.089072866 -1.3216613e-19)
(1.038853 0.10094902 -5.5773033e-21)
(1.0814725 0.11071709 8.315077e-20)
(1.1156655 0.11826406 0)
(1.1420548 0.12360583 1.0118954e-20)
(1.1614668 0.12689057 -1.5459772e-20)
(1.1748179 0.12829871 -8.5994696e-21)
(1.1826673 0.12744916 2.0992253e-20)
(0.036666908 -0.0090895793 -5.430912e-21)
(0.11731511 -0.024685356 4.3578744e-21)
(0.20811868 -0.028140176 -8.7629837e-21)
(0.30515701 -0.023414952 2.8472393e-20)
(0.40533538 -0.013075589 -2.9392663e-20)
(0.50607146 0.0015226182 -1.6927023e-20)
(0.60490489 0.019095143 3.7364231e-20)
(0.69954958 0.038365258 4.759545e-21)
(0.78800391 0.058167649 -2.4436056e-20)
(0.86863404 0.077483008 6.9867556e-20)
(0.94023971 0.095458646 5.2393898e-22)
(1.0020955 0.11143157 -8.0444312e-20)
(1.0539569 0.12494291 0)
(1.0960273 0.1357375 3.9542114e-20)
(1.1288921 0.14374844 5.5235999e-21)
(1.1534278 0.14906894 -7.7566398e-20)
(1.170699 0.15191914 -1.958692e-20)
(1.1818623 0.15262369 -1.2467633e-20)
(1.1880592 0.15152607 -1.4709393e-20)
(1.190146 0.14858494 4.0420555e-20)
(0.048058868 -0.0087674049 -1.7277958e-20)
(0.1480831 -0.021931992 -2.2198286e-21)
(0.25514069 -0.020797833 3.0380503e-20)
(0.36546383 -0.010412791 3.7484306e-20)
(0.4759042 0.0059015904 -1.9944733e-20)
(0.58374265 0.026269309 -6.9163029e-20)
(0.68644184 0.048977212 -2.7995796e-20)
(0.78176202 0.072417791 7.8929207e-20)
(0.86790194 0.095212481 8.5778132e-21)
(0.94358915 0.11624962 -2.4873481e-20)
(1.0081258 0.13469828 1.3642212e-20)
(1.061387 0.15001556 -4.3194488e-21)
(1.1037693 0.1619366 0)
(1.1360975 0.17044428 2.7203481e-20)
(1.1595046 0.1757231 -7.932241e-20)
(1.175302 0.1781037 -3.1475527e-20)
(1.1848569 0.17800814 8.1054572e-20)
(1.1894921 0.17590946 -4.2969851e-21)
(1.1904029 0.17225559 3.5561059e-21)
(1.188508 0.16719299 2.7111574e-20)
(0.06048525 -0.0069573638 -3.2414614e-20)
(0.18077772 -0.01517038 -8.1624318e-20)
(0.30388928 -0.0075835258 2.5797742e-21)
(0.42642555 0.0097033576 7.0161809e-20)
(0.54535148 0.032631555 6.2424374e-20)
(0.657981 0.058820045 -7.1574518e-20)
(0.76190882 0.086176509 -2.8275113e-22)
(0.8551829 0.11285231 8.5522544e-20)
(0.93645345 0.13737838 4.8828067e-20)
(1.0050415 0.1586937 -5.4218405e-20)
(1.0609356 0.17613563 -9.2334211e-20)
(1.1047242 0.18941355 -3.1589825e-21)
(1.1374759 0.19855944 4.2127864e-20)
(1.1605873 0.20385857 -6.6056273e-21)
(1.1756247 0.2057702 -1.2868785e-20)
(1.1841776 0.2048492 1.9690805e-20)
(1.1877427 0.20167898 4.3880614e-20)
(1.1876453 0.19682589 -4.3859426e-20)
(1.1849953 0.19077885 -1.0232199e-19)
(1.180625 0.18377381 2.4566871e-20)
(0.073537215 -0.0034329734 -3.497975e-20)
(0.21422687 -0.0039890253 -1.7388611e-19)
(0.35251656 0.011839376 8.2103241e-20)
(0.48562797 0.037018337 9.2767513e-20)
(0.61085379 0.066835552 5.7970565e-20)
(0.72576726 0.098481178 8.6107091e-21)
(0.82834801 0.12959696 -1.0624009e-19)
(0.91718996 0.15824269 0)
(0.99162743 0.18302814 -6.8748585e-20)
(1.0517521 0.20311207 -1.5202409e-20)
(1.0983384 0.21814861 5.4703463e-20)
(1.1327008 0.22821083 1.0973379e-20)
(1.1565109 0.23369261 -4.5613851e-20)
(1.1716067 0.23519947 -4.9081359e-20)
(1.1798203 0.23344336 2.4287679e-20)
(1.182845 0.22915324 4.4822888e-20)
(1.1821488 0.22300987 -5.5600404e-20)
(1.178936 0.21560823 -1.0751121e-19)
(1.1741468 0.20742225 -3.151363e-21)
(1.1684567 0.19871882 2.7046395e-20)
(0.086650445 0.001961386 -3.5448993e-21)
(0.24696018 0.011816634 8.791324e-20)
(0.39884739 0.037492309 -1.6479244e-20)
(0.54040464 0.071218381 -8.4309147e-20)
(0.66949901 0.10778893 4.5164369e-20)
(0.78421951 0.14411543 4.9175451e-20)
(0.88318939 0.17775668 5.5356779e-21)
(0.96577869 0.2068849 -9.9502485e-20)
(1.0321763 0.23038802 -2.5048779e-21)
(1.0833328 0.24781553 5.050354e-20)
(1.120807 0.25926301 5.9854755e-21)
(1.1465558 0.2652362 -1.9717206e-20)
(1.1627107 0.26650533 -7.5704624e-20)
(1.1713765 0.26396622 -6.2554018e-21)
(1.1744762 0.2585243 4.3533351e-20)
(1.1736548 0.25101089 3.702201e-20)
(1.1702383 0.24213396 1.979344e-20)
(1.1652402 0.23245876 -5.2994838e-20)
(1.1594014 0.22240419 1.2957451e-20)
(1.1532251 0.212238 8.2659091e-20)
(-0.0012932614 0.0014346598 -1.1234447e-21)
(-0.0047459601 0.0031874148 2.0646967e-21)
(-0.010771358 0.004135904 8.7949988e-22)
(-0.017754286 0.0045395359 -2.441102e-21)
(-0.024740317 0.0045654165 -1.4114824e-21)
(-0.031299591 0.0043260384 1.5460012e-21)
(-0.037161326 0.003903538 -6.8700803e-21)
(-0.04214744 0.0033577216 -5.9573039e-21)
(-0.046157774 0.0027313812 1.1171997e-20)
(-0.049146188 0.0020548306 -9.7427482e-21)
(-0.051100652 0.0013493004 -1.9833047e-22)
(-0.052030442 0.00062942199 3.6673436e-21)
(-0.051957736 -9.4889368e-05 -6.3295596e-22)
(-0.05091188 -0.00081693023 2.2818743e-20)
(-0.048925777 -0.0015318445 3.040113e-22)
(-0.046035341 -0.0022351737 -4.0882869e-20)
(-0.042281798 -0.0029222677 7.5385608e-21)
(-0.037703444 -0.0035910381 2.3864109e-20)
(-0.032308696 -0.0042399861 -4.3852373e-20)
(-0.026156967 -0.0048211126 -2.7739203e-20)
(-0.0016521999 0.0041808662 -5.3716025e-21)
(-0.0053974809 0.0092681378 1.0865438e-20)
(-0.011218509 0.012007443 -1.0191542e-20)
(-0.017658025 0.013153763 3.922974e-21)
(-0.023856431 0.013195413 4.8121437e-21)
(-0.029433316 0.012462724 7.132418e-22)
(-0.034152319 0.011197013 -2.2509489e-20)
(-0.037860376 0.0095738966 -2.0370239e-21)
(-0.040474297 0.0077189871 2.0163539e-20)
(-0.04195892 0.0057212304 -5.0473598e-21)
(-0.042308948 0.0036428646 -2.1762588e-20)
(-0.041537336 0.001526713 4.8973167e-21)
(-0.039667712 -0.00059830496 2.2635421e-20)
(-0.036729082 -0.0027127603 1.030839e-20)
(-0.032752035 -0.0048026882 2.1854283e-20)
(-0.027769173 -0.0068555073 -1.9770727e-20)
(-0.021824799 -0.0088582183 -2.1672943e-20)
(-0.014966276 -0.010804223 2.1184615e-20)
(-0.0071290247 -0.012678999 2.6810363e-20)
(0.0018742858 -0.014317221 1.5854765e-20)
(-0.0023034291 0.0065602324 -4.3568687e-21)
(-0.0065392236 0.014480195 -5.6387543e-21)
(-0.011892131 0.018710542 3.0723938e-22)
(-0.017211098 0.020428179 1.0959877e-21)
(-0.021819141 0.020400323 6.69184e-21)
(-0.02543104 0.019151665 1.0665168e-20)
(-0.027877231 0.017066287 -3.7227636e-21)
(-0.029053268 0.014423782 -1.8896164e-20)
(-0.028909036 0.011424352 6.5413169e-21)
(-0.02743105 0.008209905 1.2862569e-20)
(-0.024627714 0.0048797763 5.8340844e-21)
(-0.02052011 0.0015022391 1.8159105e-20)
(-0.015135989 -0.0018768625 1.7295914e-21)
(-0.0085054029 -0.0052272466 -3.3864527e-20)
(-0.00065689862 -0.0085276086 1.2020168e-21)
(0.0083810093 -0.011759107 -2.213921e-20)
(0.018556857 -0.014904094 -2.44663e-20)
(0.029802168 -0.01795375 4.5819707e-20)
(0.042304948 -0.020855113 2.5349345e-20)
(0.056738552 -0.023247762 1.2239223e-22)
(-0.0031290275 0.0083689697 -5.2833068e-21)
(-0.0078963986 0.018336512 -8.4815266e-21)
(-0.012438985 0.023587808 4.3593045e-21)
(-0.016026534 0.025609657 4.1463449e-21)
(-0.018235023 0.025382744 2.0105706e-21)
(-0.018912651 0.023589321 7.3209955e-21)
(-0.017984717 0.020730272 9.3124777e-21)
(-0.015416711 0.017170377 -1.3511356e-21)
(-0.011207049 0.013171314 -1.1481946e-20)
(-0.0053752368 0.0089189318 -2.9071876e-20)
(0.0020481063 0.0045434378 6.1892147e-23)
(0.011026501 0.00013431195 4.069782e-20)
(0.021522215 -0.0042489496 -1.8383171e-20)
(0.033497838 -0.008567583 -1.2296087e-20)
(0.046920495 -0.012795544 5.5348981e-22)
(0.061760075 -0.016911852 3.2302641e-20)
(0.077952989 -0.020901666 -1.4829542e-20)
(0.095392236 -0.024763371 -5.333918e-20)
(0.11439842 -0.028379713 4.5765006e-20)
(0.13634534 -0.031073089 3.3013167e-20)
(-0.0039704095 0.0094657319 -6.878899e-22)
(-0.0090916577 0.020487791 -1.2534739e-20)
(-0.012364471 0.026159086 -3.4144533e-20)
(-0.01355254 0.028143337 -5.724162e-21)
(-0.01253324 0.027555006 -3.6222736e-21)
(-0.0093167253 0.025188063 6.3051035e-21)
(-0.0039456465 0.021627411 -4.6461962e-21)
(0.0035261253 0.017298959 -8.8070275e-21)
(0.013036817 0.012508752 2.1899709e-20)
(0.024521236 0.0074744434 5.0567076e-21)
(0.037915531 0.0023489052 -2.5290292e-20)
(0.053157435 -0.0027627824 1.1078278e-20)
(0.070186855 -0.0077908724 0)
(0.088946566 -0.0126913 1.2089575e-20)
(0.10938542 -0.017436916 -9.7016172e-21)
(0.13145739 -0.022009893 -1.4337118e-20)
(0.15507405 -0.026408641 -1.5738962e-21)
(0.18006757 -0.030659415 -2.2181546e-21)
(0.20685339 -0.034576528 4.6147061e-20)
(0.23766356 -0.037019861 -1.0470124e-20)
(-0.0046450977 0.009780862 -7.5356675e-21)
(-0.0096772506 0.020747879 2.4516399e-20)
(-0.01106438 0.026160976 -1.0499346e-20)
(-0.0090968329 0.027724444 -2.746928e-20)
(-0.0039797218 0.026601694 -2.7548145e-20)
(0.0040961809 0.023648408 -1.4921568e-20)
(0.014954146 0.019496457 -6.9059637e-22)
(0.028436231 0.014604706 5.5499786e-21)
(0.044403141 0.0093034476 1.9615879e-20)
(0.062730489 0.003828417 7.3530853e-21)
(0.083304306 -0.0016547531 -7.1862212e-21)
(0.10601896 -0.007032236 -2.0102312e-21)
(0.13077356 -0.012229094 -3.8191709e-20)
(0.15746942 -0.017199749 -1.2693644e-20)
(0.18601198 -0.02191973 1.8750605e-20)
(0.21631175 -0.026379712 -2.1021673e-20)
(0.24823221 -0.030602217 -8.9730576e-21)
(0.28151865 -0.034670601 3.0440466e-20)
(0.31660701 -0.038364812 5.0472065e-20)
(0.35665012 -0.039964091 3.3559657e-21)
(-0.0049617683 0.0093139985 1.6783303e-20)
(-0.0091662692 0.019097709 1.4467937e-20)
(-0.0078593651 0.023563366 5.1145484e-20)
(-0.0018585403 0.024328943 2.338798e-20)
(0.0082957212 0.022523783 1.8251774e-22)
(0.022221937 0.019014385 -3.9388454e-20)
(0.039597438 0.014440937 -2.4313859e-20)
(0.060147898 0.0092663607 1.0465817e-20)
(0.083639107 0.0038232299 1.4401586e-20)
(0.10986668 -0.0016512969 -1.3113711e-20)
(0.13864561 -0.0069910067 -4.4038714e-20)
(0.16980169 -0.012082844 2.9618498e-20)
(0.20316403 -0.016854154 2.0020551e-20)
(0.23855944 -0.02126399 -2.7551155e-20)
(0.27581228 -0.025296397 1.1650135e-20)
(0.31474808 -0.028957161 2.4197613e-20)
(0.35514543 -0.032303044 8.0723942e-21)
(0.39663384 -0.035506668 -1.176421e-20)
(0.43957698 -0.038392632 -1.4190297e-20)
(0.48798506 -0.038634391 5.8727584e-21)
(-0.0047307762 0.0081236731 1.1093845e-20)
(-0.0070586006 0.015671176 -2.3352718e-20)
(-0.0020293666 0.018562032 8.6200545e-21)
(0.0090325186 0.018216225 3.3587965e-20)
(0.025256359 0.01565115 5.2124336e-20)
(0.046066334 0.011695604 2.0276509e-20)
(0.070984517 0.0069609538 -5.8639352e-21)
(0.09960194 0.0018829534 -1.2286284e-20)
(0.13156893 -0.0032271954 -6.2057465e-21)
(0.16657566 -0.008149654 3.4240834e-20)
(0.20433423 -0.012733316 -4.5104382e-21)
(0.24456483 -0.016879182 -1.66433e-20)
(0.28698467 -0.02052868 -1.9693572e-20)
(0.33129995 -0.023656404 -4.7443736e-20)
(0.37720456 -0.026265523 2.3238702e-20)
(0.42438767 -0.02838785 -1.4095983e-20)
(0.4724997 -0.030127607 2.5993398e-20)
(0.52103614 -0.031783175 2.1040823e-20)
(0.57021391 -0.033350662 -8.5570384e-20)
(0.62470912 -0.032058821 -1.0807235e-22)
(-0.003771052 0.0063146394 2.1925054e-20)
(-0.0028657668 0.010735096 -2.6165528e-20)
(0.0071421035 0.011564137 -4.5013292e-20)
(0.02445023 0.0099249906 -2.725378e-20)
(0.047870847 0.0066523074 -2.0439868e-21)
(0.076628697 0.0024906192 1.3050095e-20)
(0.11007672 -0.0020153926 -2.8337697e-21)
(0.14765205 -0.0064879006 1.8118536e-20)
(0.18886094 -0.010663499 8.8685614e-21)
(0.23325193 -0.014362416 -1.1380172e-20)
(0.28039147 -0.017468942 8.8779127e-21)
(0.32984601 -0.019916797 -2.3903266e-20)
(0.38116878 -0.021678688 8.0504779e-21)
(0.43389082 -0.022759863 1.675639e-20)
(0.48751932 -0.023194288 -2.6395139e-21)
(0.54154713 -0.023046876 1.6618985e-21)
(0.59543542 -0.022469428 -3.1957753e-22)
(0.6485178 -0.021870086 1.9590421e-20)
(0.70082236 -0.021445042 4.043401e-21)
(0.75745147 -0.018499058 -5.7334642e-22)
(-0.0019110146 0.0040273483 2.3692111e-20)
(0.0038694292 0.0046765209 5.7159955e-20)
(0.020315309 0.0031879657 -4.9244222e-20)
(0.045178281 0.00029442803 -9.9454141e-21)
(0.076965146 -0.0034241493 2.0256344e-20)
(0.11469622 -0.0073535826 2.1433717e-21)
(0.15753882 -0.011054953 -2.981516e-20)
(0.2047483 -0.014244134 6.9848103e-21)
(0.25564948 -0.016737922 7.1097872e-21)
(0.30960471 -0.018426949 -2.6254077e-20)
(0.36598646 -0.019260089 1.2927325e-21)
(0.42415956 -0.019231857 -3.717411e-20)
(0.48347099 -0.018372191 -3.6341012e-20)
(0.54324562 -0.016738263 6.5683473e-20)
(0.60278809 -0.014407287 5.5627476e-21)
(0.66138881 -0.011475882 -1.5188792e-20)
(0.71830781 -0.0081020273 1.9363967e-20)
(0.77269898 -0.0045928465 -9.1888147e-22)
(0.82408832 -0.00096802733 2.0364577e-20)
(0.87621963 0.0043280917 -1.955415e-20)
(-0.018836426 -0.0050997018 5.8352034e-20)
(-0.010224667 -0.0056349249 1.5783665e-20)
(-0.00022120992 -0.0060688775 -3.5139551e-20)
(0.010823207 -0.0063341068 1.6790228e-20)
(0.022642442 -0.0065120439 0)
(0.035177855 -0.0066300866 0)
(0.048369626 -0.0066909697 -2.2974939e-20)
(0.062138035 -0.0067025359 -1.6502865e-20)
(0.07641267 -0.0066741701 1.9122584e-20)
(0.091134024 -0.0066126613 1.8174026e-20)
(0.10624712 -0.0065232012 1.0524252e-21)
(0.12170016 -0.0064103533 -1.0317632e-20)
(0.13744484 -0.0062780762 8.3268741e-21)
(0.15343593 -0.0061297173 1.8233709e-20)
(0.16963069 -0.0059681399 -5.227413e-21)
(0.18598846 -0.0057958293 -1.0174931e-20)
(0.20247049 -0.0056149566 -4.3195856e-21)
(0.21903974 -0.0054274309 -4.4257374e-21)
(0.23566079 -0.0052349443 7.3667177e-22)
(0.25229978 -0.0050390071 1.2286033e-21)
(0.26892437 -0.0048409743 2.5666292e-21)
(0.28550378 -0.0046420657 6.6539427e-21)
(0.3020088 -0.0044433805 2.4894483e-22)
(0.31841192 -0.0042459081 -3.4514681e-21)
(0.33468728 -0.0040505361 1.5558773e-22)
(0.35081082 -0.0038580561 -5.7709747e-22)
(0.36676027 -0.0036691679 1.2434355e-21)
(0.38251523 -0.0034844841 1.0522432e-21)
(0.39805719 -0.0033045331 -1.2987918e-21)
(0.41336951 -0.003129763 -1.2218742e-22)
(0.42843747 -0.0029605458 3.575052e-23)
(0.44324822 -0.0027971815 -3.5187549e-22)
(0.45779075 -0.0026399031 -4.0565341e-22)
(0.47205588 -0.0024888821 5.5412629e-23)
(0.4860362 -0.0023442335 -1.3809013e-22)
(0.49972601 -0.0022060229 -2.2343131e-22)
(0.51312129 -0.0020742725 2.5571876e-22)
(0.5262197 -0.0019489678 2.9501909e-22)
(0.53902043 -0.0018300672 -8.2709247e-24)
(0.5515246 -0.0017175052 -1.5517314e-22)
(0.56373418 -0.0016112208 3.0406602e-23)
(0.57565574 -0.0015111137 -4.0144655e-23)
(0.58728948 -0.001417255 9.220309e-23)
(0.59866439 -0.0013293081 2.1977286e-23)
(0.60973485 -0.0012485568 -1.1394401e-22)
(0.62069287 -0.0011717915 -6.7611952e-24)
(0.63106083 -0.0011112426 -7.2447125e-26)
(0.64234932 -0.0010339459 -3.5610349e-24)
(0.65042725 -0.001050803 2.9453749e-23)
(0.66700807 -0.00087555679 3.6050596e-22)
(0.010445863 -0.015017607 -1.2746813e-20)
(0.018179691 -0.01664101 -6.3302324e-20)
(0.027779208 -0.017915411 -3.0541934e-20)
(0.038385136 -0.018672069 3.8476005e-20)
(0.049620976 -0.019183586 1.4662609e-20)
(0.061506616 -0.01952943 -1.8204924e-20)
(0.074012806 -0.019709862 4.6721989e-21)
(0.087062653 -0.019746489 2.5447184e-20)
(0.10059312 -0.019667278 9.1994402e-23)
(0.11455399 -0.019491697 -7.6591226e-21)
(0.12889715 -0.019234356 -1.3021015e-20)
(0.14357598 -0.018908308 -8.5245274e-21)
(0.15854661 -0.018524969 1.777233e-20)
(0.17376751 -0.018093997 8.9295402e-21)
(0.18919894 -0.017623675 -1.6522434e-20)
(0.20480271 -0.017121227 -6.0390567e-21)
(0.22054208 -0.016592992 3.2145042e-21)
(0.23638168 -0.016044565 8.3716306e-21)
(0.25228746 -0.015480926 6.983225e-21)
(0.26822665 -0.014906536 -6.9727132e-21)
(0.28416785 -0.014325408 -3.1685444e-21)
(0.30008101 -0.013741168 1.3605327e-21)
(0.31593756 -0.013157092 3.8682698e-22)
(0.33171043 -0.012576135 1.2113946e-21)
(0.34737418 -0.012000952 1.836833e-22)
(0.362905 -0.011433918 -3.2661592e-22)
(0.37828083 -0.010877135 -7.2434813e-22)
(0.39348139 -0.010332447 9.7156477e-22)
(0.40848819 -0.0098014487 8.2482867e-22)
(0.42328457 -0.0092854953 -1.5147284e-22)
(0.43785571 -0.0087857157 5.5306003e-22)
(0.45218861 -0.0083030244 -2.38809e-22)
(0.46627207 -0.0078381359 -3.7069826e-22)
(0.48009663 -0.0073915805 -6.0999005e-22)
(0.49365458 -0.0069637212 4.4171693e-22)
(0.50693988 -0.006554772 -1.5476522e-23)
(0.51994815 -0.0061648174 1.6124663e-22)
(0.53267662 -0.0057938326 -4.4174654e-22)
(0.54512405 -0.0054417108 3.7189371e-22)
(0.55729112 -0.0051082735 6.7175107e-23)
(0.5691793 -0.0047933561 -1.0285397e-22)
(0.58079469 -0.0044966747 1.7613603e-22)
(0.59213702 -0.0042184582 2.333951e-22)
(0.60323455 -0.0039577167 1.692636e-22)
(0.61404184 -0.003718296 1.6767052e-22)
(0.62474802 -0.0034906404 -2.6097725e-23)
(0.63488186 -0.0033111991 8.4042594e-23)
(0.64593101 -0.0030818564 7.6290493e-23)
(0.65382941 -0.0031323439 -1.9466324e-22)
(0.67009124 -0.0026124263 -3.8026693e-23)
(0.067614674 -0.024029142 9.4528283e-21)
(0.073589654 -0.026749044 3.2950979e-21)
(0.082265489 -0.028805563 -1.2162198e-20)
(0.0919478 -0.029968498 -1.22579e-21)
(0.10198319 -0.030767858 1.4970585e-20)
(0.11254631 -0.031330885 -1.488712e-20)
(0.12367594 -0.031636064 -2.9842264e-20)
(0.13529679 -0.031712998 1.4493517e-20)
(0.14735692 -0.031607628 1.818196e-20)
(0.15982339 -0.031350048 -1.1598512e-20)
(0.17266056 -0.030961811 1.0190549e-21)
(0.18583077 -0.030462745 8.6860144e-21)
(0.19929779 -0.029870542 -1.5253535e-20)
(0.21302652 -0.02920023 2.9095115e-21)
(0.22698238 -0.028464751 7.5194325e-21)
(0.24113135 -0.027675495 3.1599717e-23)
(0.2554401 -0.026842548 2.6556496e-22)
(0.269876 -0.025974886 -7.4150826e-21)
(0.28440726 -0.025080554 3.8616797e-21)
(0.29900293 -0.024166809 8.474901e-21)
(0.31363307 -0.023240223 -3.8351744e-21)
(0.32826885 -0.022306763 -2.2130358e-21)
(0.34288264 -0.021371845 1.0124439e-21)
(0.35744813 -0.020440376 -1.7155315e-21)
(0.37194041 -0.019516783 1.3532249e-21)
(0.38633611 -0.018605036 7.1845891e-22)
(0.40061341 -0.017708664 1.526837e-21)
(0.41475214 -0.016830773 -1.9526597e-21)
(0.42873382 -0.015974058 2.2235656e-21)
(0.44254166 -0.015140822 5.5188475e-22)
(0.45616063 -0.014332993 4.0322433e-22)
(0.46957737 -0.013552147 3.2134451e-22)
(0.48278028 -0.012799527 8.7324832e-22)
(0.49575939 -0.012076072 -1.3708578e-21)
(0.5085064 -0.011382443 3.7065475e-22)
(0.52101462 -0.010719053 1.0941202e-22)
(0.53327895 -0.010086102 -4.5171961e-23)
(0.54529585 -0.0094836053 8.6733032e-23)
(0.55706328 -0.0089114434 -3.7184855e-22)
(0.56858105 -0.008369376 1.8293421e-22)
(0.57984977 -0.0078571839 -3.4987049e-23)
(0.59087457 -0.0073744489 3.9003957e-22)
(0.60165439 -0.0069216001 -1.8544314e-22)
(0.6122161 -0.0064970492 4.7323249e-23)
(0.62251457 -0.0061071848 4.3603178e-23)
(0.63273353 -0.0057363195 -7.3598743e-23)
(0.64241392 -0.0054443932 -1.208231e-22)
(0.6529994 -0.005070486 3.8808729e-22)
(0.66054942 -0.0051542296 1.7270386e-22)
(0.67619298 -0.0043069947 -8.3039549e-22)
(0.15021526 -0.031460422 1.501012e-21)
(0.15354687 -0.035257387 -1.1566607e-20)
(0.1606162 -0.038010912 6.644195e-21)
(0.16880588 -0.03947909 -1.332474e-20)
(0.17698221 -0.040520681 -1.9758307e-21)
(0.18552343 -0.041302271 9.1599366e-21)
(0.19458416 -0.041757227 -9.7662125e-21)
(0.20408688 -0.0419137 1.5662783e-21)
(0.21398764 -0.04183332 1.2903796e-20)
(0.22427595 -0.041554325 3.4031975e-21)
(0.2349325 -0.041102034 -6.2096942e-21)
(0.24593017 -0.040500438 -2.8638079e-21)
(0.25724154 -0.039771737 -5.8409054e-21)
(0.26883907 -0.038935044 -6.4553112e-21)
(0.28069418 -0.038006964 3.2356927e-21)
(0.29277757 -0.037002291 8.462119e-22)
(0.30505969 -0.035934314 1.367957e-21)
(0.31751093 -0.03481501 -3.3850408e-21)
(0.33010189 -0.033655237 -4.2428835e-21)
(0.34280355 -0.032464883 2.3616495e-21)
(0.35558749 -0.031252985 3.2251335e-21)
(0.36842605 -0.030027803 -1.563618e-21)
(0.38129252 -0.028796889 1.5867257e-21)
(0.39416124 -0.02756712 -3.9123932e-22)
(0.40700782 -0.026344731 -3.9196375e-21)
(0.41980914 -0.02513534 -3.03328e-21)
(0.43254353 -0.023943964 -1.9026234e-22)
(0.44519079 -0.022775036 4.2858956e-22)
(0.45773226 -0.021632428 -2.210602e-21)
(0.47015088 -0.020519464 -8.5497011e-22)
(0.48243116 -0.019438952 2.2837643e-22)
(0.49455923 -0.018393207 -1.2498665e-21)
(0.50652281 -0.017384084 6.2633777e-24)
(0.5183112 -0.016413012 -4.2420784e-22)
(0.52991526 -0.015481033 -4.7193574e-22)
(0.54132738 -0.014588845 -5.1995511e-22)
(0.55254144 -0.013736842 -8.4132836e-22)
(0.56355287 -0.012925164 -5.4496465e-23)
(0.5743585 -0.012153758 -3.9160384e-24)
(0.58495697 -0.011422401 -5.1972141e-22)
(0.59534771 -0.010730897 -9.1607251e-23)
(0.60553456 -0.010078769 -3.3239202e-22)
(0.61551536 -0.0094667101 -4.3759654e-22)
(0.62531509 -0.0088926213 3.7841491e-22)
(0.63488914 -0.0083653878 1.4820879e-23)
(0.64441356 -0.0078635638 1.8237428e-22)
(0.6534468 -0.0074693211 -1.3246514e-22)
(0.66336936 -0.0069629312 -2.6690788e-22)
(0.67042142 -0.0070791289 -4.4693514e-23)
(0.68517826 -0.0059326609 4.6229395e-22)
(0.25468562 -0.036552746 -2.0900304e-20)
(0.25447016 -0.041393496 4.7585944e-20)
(0.25907328 -0.044745643 1.0348096e-20)
(0.26508407 -0.046442028 -1.5765318e-20)
(0.27070926 -0.047714299 -2.0227915e-21)
(0.27651988 -0.048747759 2.6232264e-21)
(0.28283542 -0.0494137 -1.6608189e-21)
(0.28957682 -0.049728081 -4.6861406e-21)
(0.29669649 -0.049761411 -4.0159156e-21)
(0.30420538 -0.049557033 -1.2207635e-20)
(0.31210208 -0.049141667 1.7897748e-20)
(0.32036927 -0.048540782 6.5219874e-21)
(0.32898689 -0.047778945 -1.6780519e-20)
(0.33793391 -0.046877998 1.0317572e-20)
(0.34718695 -0.04585728 8.3849905e-21)
(0.35672062 -0.044734292 -8.7923818e-22)
(0.36650831 -0.043525046 -3.1222232e-21)
(0.37652275 -0.042244227 -3.8197289e-21)
(0.38673626 -0.040905338 -1.3892567e-21)
(0.39712115 -0.039520831 -1.2304181e-21)
(0.40764993 -0.038102199 -3.0257582e-21)
(0.41829562 -0.036660047 0)
(0.42903196 -0.035204132 -1.34519e-21)
(0.43983355 -0.0337434 3.930949e-21)
(0.45067606 -0.032286005 5.4052626e-21)
(0.4615363 -0.030839331 -9.4112525e-22)
(0.47239239 -0.029410005 -2.9274402e-21)
(0.48322378 -0.028003912 3.0258342e-21)
(0.49401137 -0.02662622 2.5447552e-22)
(0.5047375 -0.025281403 3.4352405e-21)
(0.51538601 -0.023973265 -5.3459714e-22)
(0.52594223 -0.022704982 1.7173445e-21)
(0.536393 -0.021479137 -7.9964206e-22)
(0.54672663 -0.020297764 2.9094013e-22)
(0.55693293 -0.019162401 -4.3403798e-22)
(0.56700315 -0.018074136 5.623152e-22)
(0.57692997 -0.01703367 4.5709719e-22)
(0.58670754 -0.016041371 3.8255447e-22)
(0.59633139 -0.015097357 -9.5935819e-22)
(0.60579878 -0.014201523 6.8355127e-22)
(0.61510776 -0.013353789 -3.6957187e-22)
(0.62426067 -0.012553716 -1.1033121e-21)
(0.63325408 -0.011802336 1.4078075e-21)
(0.64211072 -0.011097154 -6.2005433e-23)
(0.65078676 -0.010449475 -1.5815844e-22)
(0.65944869 -0.0098325991 -7.8243709e-24)
(0.66767717 -0.0093492125 -1.2621367e-22)
(0.67677298 -0.0087261704 -4.6581889e-22)
(0.68320481 -0.0088736057 8.7882948e-22)
(0.69685019 -0.0074648589 -4.4315492e-23)
(0.37635124 -0.038368151 -1.7495095e-20)
(0.37170971 -0.044270213 1.2832047e-20)
(0.37286684 -0.048161595 2.9754537e-21)
(0.37591039 -0.050098832 -7.6353733e-21)
(0.3783052 -0.051669952 1.205598e-20)
(0.38072287 -0.053042352 7.791409e-21)
(0.38367594 -0.054030018 -1.2647687e-20)
(0.3871005 -0.054633081 -6.0679754e-21)
(0.39092916 -0.054917981 1.2697337e-20)
(0.39518235 -0.05492711 -1.5304968e-20)
(0.39987416 -0.05468749 -1.4063187e-20)
(0.40499498 -0.054224627 1.4129629e-20)
(0.41052852 -0.053563634 6.819382e-21)
(0.41645708 -0.052727922 -4.2037637e-21)
(0.42276004 -0.051738989 -1.8545615e-21)
(0.42941392 -0.050616722 -4.0581716e-21)
(0.43639336 -0.049379674 5.3047596e-21)
(0.44367184 -0.048045199 3.668208e-21)
(0.45122212 -0.046629519 -3.2408291e-21)
(0.45901666 -0.045147786 3.137948e-21)
(0.46702793 -0.043614129 2.7666788e-21)
(0.47522877 -0.042041697 -3.2111117e-21)
(0.48359253 -0.040442671 3.7056553e-22)
(0.4920934 -0.038828286 -3.2571635e-21)
(0.50070648 -0.037208834 7.245409e-21)
(0.50940796 -0.035593674 6.108056e-21)
(0.51817526 -0.033991248 8.097306e-22)
(0.52698705 -0.03240909 -1.768322e-21)
(0.53582335 -0.03085385 3.702173e-21)
(0.5446656 -0.029331323 7.1885117e-21)
(0.55349664 -0.027846483 2.304929e-21)
(0.56230074 -0.026403522 3.3164824e-21)
(0.57106362 -0.025005904 1.9956186e-21)
(0.57977241 -0.023656412 7.4557816e-22)
(0.58841566 -0.022357217 -2.6374534e-22)
(0.59698334 -0.021109931 2.7203072e-21)
(0.60546679 -0.019915688 6.1992061e-22)
(0.61385878 -0.018775207 2.9487711e-22)
(0.62215341 -0.01768889 5.6232367e-23)
(0.63034648 -0.016656864 9.8966218e-22)
(0.63843458 -0.015679273 4.701998e-23)
(0.64641847 -0.014755818 4.4247243e-22)
(0.65429341 -0.013887951 -1.2621747e-22)
(0.66207965 -0.013072905 -2.7734671e-22)
(0.66973449 -0.012324308 -1.5218536e-22)
(0.67741335 -0.011610791 -4.2207574e-22)
(0.68472314 -0.01105349 1.6139105e-22)
(0.69287132 -0.01033228 -1.2723497e-22)
(0.69859414 -0.010509377 -5.0126417e-22)
(0.71095647 -0.0088817038 2.4586835e-22)
(0.50927423 -0.035974259 3.647144e-21)
(0.49953032 -0.042960638 -1.8958304e-20)
(0.49627548 -0.047383434 -2.308384e-21)
(0.49555583 -0.049736737 5.4869501e-21)
(0.49416943 -0.051818 3.0528105e-21)
(0.49269563 -0.053705365 -4.9885724e-23)
(0.49181218 -0.055187601 6.1896641e-21)
(0.49151439 -0.056265349 7.6250999e-21)
(0.49171154 -0.056990481 9.8580393e-21)
(0.49241059 -0.05739552 -1.1250038e-20)
(0.49363091 -0.057506246 -2.1579416e-20)
(0.49536764 -0.057348359 -3.9353457e-21)
(0.49760453 -0.056947071 1.5938138e-20)
(0.50032287 -0.056326948 1.2808954e-20)
(0.5035015 -0.05551167 -5.9066942e-21)
(0.50711636 -0.054523781 1.3817053e-21)
(0.51114123 -0.053384717 -3.6600819e-21)
(0.51554858 -0.05211487 2.2443728e-21)
(0.52031011 -0.050733576 -2.9123013e-22)
(0.52539716 -0.049259092 -1.8654088e-21)
(0.53078107 -0.047708586 7.8265845e-21)
(0.53643345 -0.046098135 -2.9308733e-22)
(0.54232651 -0.044442712 4.1818067e-22)
(0.54843319 -0.042756184 -6.564667e-22)
(0.5547274 -0.041051303 -4.3029357e-21)
(0.56118409 -0.039339706 4.2085132e-21)
(0.56777943 -0.037631925 1.903121e-21)
(0.57449085 -0.0359374 -3.3081896e-21)
(0.58129711 -0.034264503 -4.111641e-21)