/*--------------------------------*- C++ -*----------------------------------*\
  =========                 |
  \\      /  F ield         | OpenFOAM: The Open Source CFD Toolbox
   \\    /   O peration     | Website:  https://openfoam.org
    \\  /    A nd           | Version:  6
     \\/     M anipulation  |
\*---------------------------------------------------------------------------*/
FoamFile
{
    version     2.0;
    format      ascii;
    class       volVectorField;
    location    "336";
    object      UMean;
}
// * * * * * * * * * * * * * * * * * * * * * * * * * * * * * * * * * * * * * //

dimensions      [0 1 -1 0 0 0 0];

internalField   nonuniform List<vector> 
9200
(
(0.0014497888 0.0011059856 -6.0284943e-20)
(0.015040597 -0.0030477935 4.7471337e-20)
(0.04071835 -0.0074344883 -3.9358686e-20)
(0.075781977 -0.011831832 -6.2069763e-20)
(0.11838008 -0.016005579 1.9316757e-20)
(0.16727543 -0.019519311 3.373451e-20)
(0.22138725 -0.022083985 -1.2625045e-20)
(0.27971744 -0.023554346 9.546366e-21)
(0.3413326 -0.023871859 1.7478366e-20)
(0.4053324 -0.023041604 1.5447027e-21)
(0.47082619 -0.021120958 -2.2356895e-20)
(0.53692411 -0.018208634 2.1503968e-20)
(0.60274017 -0.01443377 -4.1998198e-20)
(0.66740499 -0.0099448315 -2.2030794e-20)
(0.73008686 -0.0048978282 6.1559016e-21)
(0.79001823 0.00055336704 -2.6242113e-20)
(0.84654118 0.006280175 2.635611e-20)
(0.89923023 0.01232648 2.3335479e-20)
(0.94770947 0.018822347 -2.7505113e-22)
(0.98930552 0.022422964 -1.6218553e-21)
(0.0057827734 -0.0016996614 -1.7368985e-20)
(0.02864746 -0.01005826 4.0860938e-20)
(0.064558185 -0.016466656 2.3963365e-20)
(0.11040683 -0.021320074 -1.187492e-19)
(0.16403654 -0.024787435 -1.3022037e-20)
(0.22395214 -0.026663461 7.5500696e-20)
(0.28880652 -0.026859193 -3.6539833e-20)
(0.35732292 -0.02541553 -8.6828465e-21)
(0.42828328 -0.022444087 3.5511539e-20)
(0.50050501 -0.018108249 -4.4866367e-20)
(0.57283 -0.01261533 -3.1577949e-20)
(0.6441319 -0.0062061865 7.4930633e-20)
(0.71333641 0.00085654008 3.9839472e-20)
(0.77945036 0.0083000657 -7.0796873e-20)
(0.84159516 0.015851406 1.5230346e-20)
(0.89903921 0.023242038 -3.8260537e-20)
(0.95123802 0.03022186 -1.4442806e-20)
(0.99793289 0.036632081 7.3879834e-20)
(1.0390197 0.042062647 3.133691e-20)
(1.0727397 0.043399021 -8.4564714e-20)
(0.011518527 -0.0044198648 3.722782e-20)
(0.045973573 -0.016536408 2.3929561e-21)
(0.093894406 -0.024231831 2.2567485e-20)
(0.15181886 -0.028640908 1.0043957e-21)
(0.21729436 -0.030421148 -4.1484169e-20)
(0.28854258 -0.029662625 1.9202244e-20)
(0.36391532 -0.026536819 1.3661859e-20)
(0.44182476 -0.02132855 -5.186925e-20)
(0.52074833 -0.014372584 5.9184858e-20)
(0.5992247 -0.0060363646 1.4928933e-20)
(0.67586448 0.003287628 -5.6438372e-20)
(0.74937888 0.013195468 -1.902963e-20)
(0.81861779 0.023288235 9.228564e-21)
(0.8826097 0.033188219 2.4355657e-20)
(0.94059638 0.042552809 -1.1785632e-20)
(0.99205573 0.051083418 2.8914663e-20)
(1.0367143 0.058539547 -2.0993239e-20)
(1.0745768 0.064785902 -7.2475482e-20)
(1.1058031 0.069555203 -2.415119e-20)
(1.1295654 0.07097517 4.9924261e-20)
(0.018752779 -0.0068062472 2.4729693e-20)
(0.067136468 -0.021788367 5.1872985e-20)
(0.12871308 -0.029692881 2.0275294e-20)
(0.19974118 -0.032517951 1.3449024e-20)
(0.27749066 -0.031496734 1.7824639e-20)
(0.35988329 -0.027083942 -4.9032312e-20)
(0.44495336 -0.019775483 -2.6428214e-20)
(0.53080209 -0.010157111 0)
(0.61563123 0.0011674559 1.4884085e-20)
(0.697768 0.013596291 -6.3668572e-21)
(0.77570222 0.026540593 -1.0134011e-19)
(0.84813457 0.039444247 -1.6220082e-20)
(0.91402385 0.051805773 6.7494269e-20)
(0.97262352 0.063197639 4.7980378e-22)
(1.0235006 0.073280374 -1.6256438e-21)
(1.066532 0.081809448 2.2665553e-20)
(1.1018818 0.088641972 -5.3462444e-21)
(1.1299751 0.093765168 -6.2951549e-20)
(1.1513812 0.097155503 -4.7281885e-20)
(1.1660891 0.097864295 7.0751923e-20)
(0.027511903 -0.0085773257 -3.8699085e-21)
(0.092034011 -0.025065083 -4.9301649e-21)
(0.16862129 -0.031778478 5.7503179e-20)
(0.25336043 -0.031691073 1.9074642e-20)
(0.34328351 -0.026694134 -3.2934955e-20)
(0.43602171 -0.017676512 1.2318437e-20)
(0.52931523 -0.0055182101 2.7186408e-21)
(0.62101009 0.0088495265 3.4819173e-20)
(0.7091297 0.02453017 5.8494081e-21)
(0.79193236 0.040688307 -1.3804976e-20)
(0.86796983 0.05656667 6.2458366e-20)
(0.936142 0.071510581 -5.9817206e-20)
(0.99573391 0.084990831 -1.3644862e-19)
(1.0464267 0.096618548 -5.7520637e-21)
(1.0882795 0.10614982 8.559108e-20)
(1.1216835 0.11347941 0)
(1.1472962 0.11862996 1.0484651e-20)
(1.165971 0.12175486 -1.5815869e-20)
(1.178643 0.12303717 -8.9140265e-21)
(1.1858822 0.12209084 2.1362784e-20)
(0.037732601 -0.0094288435 -5.2464711e-21)
(0.12031317 -0.025604913 4.4138315e-21)
(0.21283692 -0.029467311 -8.899694e-21)
(0.31136479 -0.02504742 2.882124e-20)
(0.41276622 -0.0149603 -3.0173789e-20)
(0.51443589 -0.00058686935 -1.7368885e-20)
(0.61390231 0.016768356 3.7869657e-20)
(0.70888169 0.035814045 4.7648094e-21)
(0.79738917 0.055376765 -2.5498676e-20)
(0.87782114 0.074435134 7.199888e-20)
(0.94901847 0.092139484 3.7419138e-22)
(1.010304 0.10783371 -8.2947189e-20)
(1.061484 0.12106826 0)
(1.1028112 0.13159812 4.0588681e-20)
(1.1349148 0.13936594 5.637074e-21)
(1.1587066 0.1444728 -7.9407547e-20)
(1.1752778 0.14714427 -2.0065009e-20)
(1.1858017 0.14770807 -1.2713337e-20)
(1.1914281 0.14650709 -1.5039067e-20)
(1.1930136 0.14348979 4.1251875e-20)
(0.049248675 -0.009054581 -1.7296007e-20)
(0.15135357 -0.022692538 -2.7766135e-21)
(0.26019734 -0.021878042 3.0565237e-20)
(0.37200257 -0.01173287 3.7592335e-20)
(0.4835971 0.0043724122 -2.0285074e-20)
(0.59225129 0.024535867 -7.0914979e-20)
(0.69543188 0.047026156 -2.8920528e-20)
(0.79091892 0.070225177 8.1057302e-20)
(0.87694599 0.092751744 9.0065718e-21)
(0.95228762 0.11349832 -2.5474495e-20)
(1.0163007 0.13164302 1.3903363e-20)
(1.0689173 0.14665491 -4.4566376e-21)
(1.1105883 0.15828188 0)
(1.142186 0.16651855 2.7876562e-20)
(1.164881 0.17155871 -8.1162572e-20)
(1.1800111 0.17373914 -3.2194104e-20)
(1.1889596 0.17348463 8.2741353e-20)
(1.1930559 0.17126825 -4.5391902e-21)
(1.1934953 0.16753432 3.5838433e-21)
(1.19119 0.16241723 2.7739742e-20)
(0.061784861 -0.0071741225 -3.2504987e-20)
(0.18427309 -0.015730797 -8.2705485e-20)
(0.30920402 -0.0083670595 2.0597351e-21)
(0.43318501 0.0087440839 7.1563593e-20)
(0.55317264 0.031498184 6.367319e-20)
(0.66648657 0.05749098 -7.2731674e-20)
(0.77074394 0.084616852 1.2030949e-23)
(0.86403151 0.11102333 8.7910574e-20)
(0.94505194 0.13524626 5.0045959e-20)
(1.0131873 0.15623601 -5.5656428e-20)
(1.0684901 0.17334494 -9.4634866e-20)
(1.111609 0.18629837 -3.2345684e-21)
(1.1436647 0.1951428 4.3094416e-20)
(1.1660948 0.20017479 -6.7126912e-21)
(1.1804936 0.20186088 -1.3050533e-20)
(1.1884672 0.20075898 1.9938524e-20)
(1.1915184 0.19745195 4.4705476e-20)
(1.1909716 0.19250303 -4.4567601e-20)
(1.1879312 0.18639533 -1.0414466e-19)
(1.18322 0.17935321 2.512842e-20)
(0.074927316 -0.0035635215 -3.542974e-20)
(0.21788941 -0.0043165845 -1.7483973e-19)
(0.35799826 0.01138878 8.3940902e-20)
(0.49249094 0.036451027 9.4538659e-20)
(0.61867007 0.066119026 5.8962657e-20)
(0.73413357 0.097565785 8.8107375e-21)
(0.83690318 0.12842771 -1.0845165e-19)
(0.92563005 0.15676985 0)
(0.9997159 0.18121567 -7.0534827e-20)
(1.0593232 0.2009425 -1.5594955e-20)
(1.105294 0.21562441 5.591909e-20)
(1.1390011 0.22535259 1.118649e-20)
(1.1621617 0.23053512 -4.6509779e-20)
(1.1766453 0.23178663 -4.9958117e-20)
(1.1843022 0.229823 2.4807697e-20)
(1.1868329 0.22537271 4.5722393e-20)
(1.1857044 0.2191128 -5.6623638e-20)
(1.1821151 0.21163271 -1.0930356e-19)
(1.1769971 0.20339934 -3.1080503e-21)
(1.1710166 0.19467001 2.7447436e-20)
(0.088107017 0.0019294824 -3.782058e-21)
(0.25072424 0.011744807 8.8965615e-20)
(0.40439866 0.03739613 -1.5425287e-20)
(0.54725349 0.071056305 -8.6302449e-20)
(0.67718564 0.10749149 4.6067225e-20)
(0.79232872 0.14360563 4.9768082e-20)
(0.89136707 0.17696288 5.6589589e-21)
(0.97374381 0.20575133 -1.0155172e-19)
(1.0397259 0.22888151 -2.5587357e-21)
(1.0903394 0.24592768 5.1575881e-20)
(1.1272092 0.25700835 6.1025037e-21)
(1.1523445 0.26264747 -2.0145354e-20)
(1.1679137 0.26362729 -7.7099903e-20)
(1.176043 0.26084931 -6.3196632e-21)
(1.178665 0.25521917 4.4242453e-20)
(1.1774247 0.24756442 3.7594021e-20)
(1.1736427 0.2385869 2.0025246e-20)
(1.1683245 0.22884481 -5.3994512e-20)
(1.1622024 0.21874991 1.292208e-20)
(1.1557717 0.20856314 8.3738492e-20)
(-0.0013135229 0.0014465976 -9.5993036e-22)
(-0.0047561496 0.0031902242 1.9539053e-21)
(-0.010786558 0.0041136765 1.4356498e-21)
(-0.017702376 0.0044845409 -1.6527986e-21)
(-0.024565923 0.0044729179 -1.9621784e-21)
(-0.030948248 0.0041937718 2.0949648e-21)
(-0.036577128 0.0037309347 -7.7507361e-21)
(-0.041276373 0.003145163 -6.6993665e-21)
(-0.044949109 0.0024797599 1.2234519e-20)
(-0.047552537 0.0017653098 -1.057044e-20)
(-0.049077839 0.0010231666 -2.0130877e-22)
(-0.049537366 0.00026799361 3.9550953e-21)
(-0.048956176 -0.00049031539 -6.5950187e-22)
(-0.04736627 -0.0012451086 2.4255355e-20)
(-0.044802973 -0.0019915974 2.8563728e-22)
(-0.041304414 -0.0027253916 -4.3221729e-20)
(-0.03691389 -0.0034418886 8.0112393e-21)
(-0.031671617 -0.004139021 2.5056206e-20)
(-0.025587326 -0.0048153054 -4.5960874e-20)
(-0.018722521 -0.0054220381 -2.9008739e-20)
(-0.0016723492 0.0042127522 -5.5632913e-21)
(-0.005395335 0.0092686015 1.0189574e-20)
(-0.011196511 0.011931506 -1.0380391e-20)
(-0.017537985 0.012979647 4.9700177e-21)
(-0.023579718 0.012909756 5.9551112e-21)
(-0.028943395 0.012059282 8.3497582e-22)
(-0.033392103 0.010674416 -2.5502078e-20)
(-0.036775283 0.0089335028 -2.2053644e-21)
(-0.039013401 0.0069636282 2.1964595e-20)
(-0.040074899 0.0048545245 -5.4587193e-21)
(-0.039957922 0.0026687976 -2.3410522e-20)
(-0.038678735 0.0004493806 5.2358636e-21)
(-0.036264115 -0.0017748429 2.396743e-20)
(-0.032746042 -0.0039845596 1.0934868e-20)
(-0.028157919 -0.006165965 2.3211571e-20)
(-0.022535023 -0.0083066421 -2.0846635e-20)
(-0.015924305 -0.010393706 -2.2743627e-20)
(-0.0083759415 -0.012420581 2.2359524e-20)
(0.00017320101 -0.014372654 2.7982147e-20)
(0.0099129947 -0.016082546 1.6378751e-20)
(-0.00232139 0.0066010081 -4.5163544e-21)
(-0.0065091742 0.014456428 -5.1551766e-21)
(-0.01179392 0.018555923 1.5400027e-22)
(-0.016955934 0.020110884 3.570985e-22)
(-0.021342757 0.019900681 7.2148018e-21)
(-0.024673622 0.018460871 1.1405629e-20)
(-0.02678015 0.016183009 -4.1384071e-21)
(-0.027561613 0.013350866 -2.0408763e-20)
(-0.026972357 0.010166915 7.0729657e-21)
(-0.025003129 0.0067743043 1.3837315e-20)
(-0.021666366 0.0032729761 6.3456801e-21)
(-0.016987065 -0.00026857066 1.922224e-20)
(-0.010996806 -0.0038044718 1.834903e-21)
(-0.003729419 -0.0073045343 -3.5658018e-20)
(0.0047828032 -0.010747597 1.4154795e-21)
(0.014507593 -0.014115006 -2.2977541e-20)
(0.025389728 -0.017389291 -2.5877821e-20)
(0.037356235 -0.02056172 4.8181655e-20)
(0.05059239 -0.023579103 2.6673261e-20)
(0.065780582 -0.026077775 3.4350552e-22)
(-0.003139573 0.0084027603 -5.5640569e-21)
(-0.0078176069 0.018257296 -1.0164245e-20)
(-0.012222356 0.02331908 4.4350973e-21)
(-0.015570324 0.025115479 4.474784e-21)
(-0.017468335 0.024640614 2.0754315e-21)
(-0.017772339 0.022590032 8.1519235e-21)
(-0.01641136 0.019473841 1.019356e-20)
(-0.013356449 0.015661941 -1.5097571e-21)
(-0.0086118469 0.011418827 -1.2346912e-20)
(-0.0022024437 0.0069319121 -3.1095782e-20)
(0.0058359688 0.0023322158 1.2401629e-22)
(0.015461847 -0.0022904298 4.3127859e-20)
(0.026632334 -0.006876386 -1.9252451e-20)
(0.039304825 -0.011386852 -1.2952425e-20)
(0.053441104 -0.015795819 3.9721542e-22)
(0.069005617 -0.020082433 3.3957824e-20)
(0.08592928 -0.024232052 -1.583665e-20)
(0.10409846 -0.028243414 -5.5618709e-20)
(0.12382761 -0.031999652 4.7459719e-20)
(0.14650407 -0.034819844 3.4354773e-20)
(-0.0039646319 0.0094749267 -5.4786373e-22)
(-0.0089371736 0.020318682 -1.2996763e-20)
(-0.011983545 0.025737457 -3.6755145e-20)
(-0.012830822 0.027436005 -6.5171935e-21)
(-0.011393952 0.026540848 -3.464243e-21)
(-0.0076947878 0.023860156 6.8675676e-21)
(-0.0017829154 0.019988791 -5.1441989e-21)
(0.0062797567 0.015358101 -9.5267827e-21)
(0.016423645 0.010277125 2.3333614e-20)
(0.028576392 0.0049652083 5.2963056e-21)
(0.042667215 -0.00042386729 -2.7007916e-20)
(0.058626929 -0.0057845642 1.1601054e-20)
(0.076388428 -0.011046889 0)
(0.095887266 -0.016166608 1.2695177e-20)
(0.11706476 -0.021116452 -1.0166119e-20)
(0.13986715 -0.025878567 -1.5088885e-20)
(0.16419842 -0.030451468 -1.2338334e-21)
(0.18988208 -0.034862079 -2.4622874e-21)
(0.21732228 -0.038927041 4.7427849e-20)
(0.24876283 -0.041505721 -1.1364521e-20)
(-0.0046107003 0.0097492546 -7.7020452e-21)
(-0.0094144124 0.020457616 2.5792342e-20)
(-0.010469891 0.025551929 -1.1338539e-20)
(-0.008046804 0.026772996 -2.9040082e-20)
(-0.0023941018 0.025292526 -2.8716815e-20)
(0.0062814856 0.02197978 -1.5845706e-20)
(0.017792602 0.017476252 -8.2177731e-22)
(0.03197025 0.012245889 5.9127821e-21)
(0.048664788 0.0066217429 2.0706257e-20)
(0.067742196 0.00084108431 7.7584639e-21)
(0.089079207 -0.0049296497 -7.5274179e-21)
(0.11256089 -0.010576243 -1.9773509e-21)
(0.13807691 -0.016023538 -4.0114728e-20)
(0.16551892 -0.02122576 -1.3297052e-20)
(0.19478236 -0.026158238 1.9858751e-20)
(0.22576753 -0.030811474 -2.2121024e-20)
(0.25832827 -0.035207817 -9.3632781e-21)
(0.29219988 -0.039431248 3.1352925e-20)
(0.32780208 -0.043266837 5.2011393e-20)
(0.36828974 -0.045000575 3.5260252e-21)
(-0.0048839554 0.0092292402 1.7117536e-20)
(-0.0087581836 0.018663543 1.4784968e-20)
(-0.0069997544 0.022743358 5.3244066e-20)
(-0.00041942913 0.023114917 2.4657919e-20)
(0.010393312 0.020910301 1.938591e-22)
(0.025036766 0.01700763 -4.1650966e-20)
(0.043173706 0.012055408 -2.5550079e-20)
(0.064515362 0.0065206178 1.101572e-20)
(0.08881407 0.00073784421 1.5139259e-20)
(0.11585294 -0.0050547329 -1.3677036e-20)
(0.14543482 -0.01069051 -4.6299676e-20)
(0.17737343 -0.016056384 3.1116137e-20)
(0.21148583 -0.021079775 2.0845244e-20)
(0.24758668 -0.025719783 -2.8815656e-20)
(0.28548819 -0.029960426 1.2243151e-20)
(0.3250038 -0.033807358 2.519421e-20)
(0.36590126 -0.037316833 8.4745006e-21)
(0.40780033 -0.040661328 -1.2474717e-20)
(0.45104608 -0.043672798 -1.4403675e-20)
(0.49963503 -0.044042928 6.8523765e-21)
(-0.0045934107 0.0079786563 1.1441458e-20)
(-0.0064663013 0.015082198 -2.4564989e-20)
(-0.0008526546 0.017523036 8.53781e-21)
(0.010918463 0.016738798 3.5129429e-20)
(0.027923614 0.01374298 5.4173465e-20)
(0.049562768 0.0093730368 2.1194876e-20)
(0.075339358 0.004246455 -6.1171908e-21)
(0.10482636 -0.0011986157 -1.2848213e-20)
(0.13765734 -0.0066501763 -6.5306905e-21)
(0.17350675 -0.011888319 3.5867503e-20)
(0.21207156 -0.016762338 -4.8348936e-21)
(0.25305716 -0.021173896 -1.7497923e-20)
(0.29616636 -0.025065154 -2.0505392e-20)
(0.34109145 -0.028411375 -4.9585901e-20)
(0.38751316 -0.031216244 2.4175201e-20)
(0.43510847 -0.033511807 -1.4665702e-20)
(0.4835178 -0.035401555 2.7132655e-20)
(0.53222973 -0.037182106 2.1940591e-20)
(0.58144489 -0.038856522 -8.7843315e-20)
(0.635809 -0.037683901 1.4248472e-22)
(-0.0035579338 0.0061079694 2.2447863e-20)
(-0.0020509883 0.0099937523 -2.7218384e-20)
(0.0086852703 0.010316112 -4.643811e-20)
(0.026835015 0.008204145 -2.8269618e-20)
(0.051155412 0.0044815338 -2.127816e-21)
(0.080843267 -0.00010230807 1.3646073e-20)
(0.11522898 -0.0049994327 -2.9617393e-21)
(0.15372802 -0.0098318636 1.887312e-20)
(0.19582654 -0.014337132 9.2298012e-21)
(0.24105426 -0.018336814 -1.1871452e-20)
(0.28895985 -0.021716837 9.3611357e-21)
(0.33909297 -0.024412703 -2.4965757e-20)
(0.39099134 -0.026398913 8.5816763e-21)
(0.44417218 -0.027682392 1.7505913e-20)
(0.49813106 -0.028298554 -2.8649216e-21)
(0.55235176 -0.028313315 1.8092771e-21)
(0.60629015 -0.027877941 -4.7631516e-22)
(0.65927951 -0.027397154 2.0491259e-20)
(0.7113396 -0.027070427 4.0102241e-21)
(0.76752814 -0.024236221 -1.5294035e-21)
(-0.0016070512 0.0037632622 2.4397296e-20)
(0.0049414137 0.0037989101 5.9206865e-20)
(0.022267876 0.0017599208 -5.0631237e-20)
(0.04810384 -0.0016273856 -1.029332e-20)
(0.080899984 -0.0058011699 2.1014905e-20)
(0.11964547 -0.010146684 2.2203234e-21)
(0.16348144 -0.014225204 -3.0913894e-20)
(0.21163829 -0.017755221 7.2592718e-21)
(0.26341778 -0.020556689 7.3801047e-21)
(0.3181611 -0.022523448 -2.7322059e-20)
(0.37522143 -0.023607613 1.3434592e-21)
(0.43394658 -0.023806898 -3.8783e-20)
(0.49366927 -0.023154283 -3.7928578e-20)
(0.55370369 -0.021709732 6.8567601e-20)
(0.61334795 -0.019552922 5.8038333e-21)
(0.67189081 -0.016782412 -1.5823164e-20)
(0.72859632 -0.013556741 2.0137067e-20)
(0.78262968 -0.010181073 -9.4852821e-22)
(0.83352725 -0.0066779359 2.0736137e-20)
(0.88499865 -0.0015139382 -2.0670138e-20)
(-0.01055586 -0.0057043208 6.0981624e-20)
(-0.0009659526 -0.0062299823 1.6279449e-20)
(0.0100361 -0.0066525587 -3.6266561e-20)
(0.022096019 -0.0069025615 1.7438512e-20)
(0.034939985 -0.0070629246 0)
(0.048504409 -0.0071621662 0)
(0.062726722 -0.0072031739 -2.3516639e-20)
(0.077523974 -0.0071939105 -1.6809947e-20)
(0.092822209 -0.0071440485 1.9551713e-20)
(0.10855875 -0.00706064 1.8490263e-20)
(0.1246758 -0.0069490726 1.0446609e-21)
(0.14111893 -0.006814085 -1.0381381e-20)
(0.1578374 -0.0066598028 8.4829187e-21)
(0.17478379 -0.0064897218 1.8248843e-20)
(0.19191342 -0.0063068338 -5.3412879e-21)
(0.20918393 -0.0061137356 -1.0114531e-20)
(0.22655511 -0.005912694 -4.2787364e-21)
(0.24398874 -0.0057056977 -4.3275165e-21)
(0.26144842 -0.0054945039 7.1011545e-22)
(0.27889955 -0.0052806739 1.2177207e-21)
(0.29630928 -0.0050656009 2.5746331e-21)
(0.31364656 -0.0048505308 6.5419311e-21)
(0.33088211 -0.0046365778 1.7964477e-22)
(0.3479885 -0.0044247361 -3.3833402e-21)
(0.3649402 -0.0042158891 1.383362e-22)
(0.38171358 -0.0040108161 -5.6250811e-22)
(0.39828698 -0.0038101976 1.2085319e-21)
(0.41464075 -0.0036146208 9.9809259e-22)
(0.43075719 -0.0034245835 -1.2937785e-21)
(0.44662062 -0.0032404996 -1.0773133e-22)
(0.46221732 -0.0030627035 -1.5834771e-23)
(0.47753551 -0.0028914554 -3.369676e-22)
(0.49256531 -0.0027269472 -4.0863334e-22)
(0.50729866 -0.0025693082 7.853123e-23)
(0.52172931 -0.0024186117 -1.3097888e-22)
(0.53585272 -0.0022748816 -2.0610318e-22)
(0.54966601 -0.0021380997 2.3500536e-22)
(0.56316798 -0.0020082123 2.6802373e-22)
(0.57635891 -0.0018851404 -2.4343026e-23)
(0.589241 -0.0017687833 -1.606288e-22)
(0.60181722 -0.0016590475 2.0856318e-23)
(0.61409527 -0.0015558022 -3.0075325e-23)
(0.62607595 -0.0014590932 8.3941911e-23)
(0.63779029 -0.0013685612 -3.2096586e-24)
(0.64919054 -0.0012854724 -1.2727769e-22)
(0.66047877 -0.0012066312 1.6298987e-24)
(0.67115299 -0.0011441557 4.1206149e-24)
(0.68279672 -0.0010656003 -4.6980851e-24)
(0.69108408 -0.0010799089 2.7091112e-23)
(0.70823508 -0.00090778603 3.6792441e-22)
(0.019312445 -0.016793657 -1.3548445e-20)
(0.027963635 -0.018388665 -6.5642324e-20)
(0.038504892 -0.019630152 -3.1875436e-20)
(0.050072105 -0.0203429 3.983968e-20)
(0.062277613 -0.020803604 1.5142192e-20)
(0.075137524 -0.021095004 -1.8900513e-20)
(0.088620963 -0.021217792 5.0070981e-21)
(0.10264793 -0.021193902 2.5955136e-20)
(0.11715188 -0.021052139 -8.4879268e-23)
(0.13207964 -0.020812744 -7.860539e-21)
(0.14738046 -0.020490904 -1.2947221e-20)
(0.1630052 -0.020100188 -8.7475596e-21)
(0.17890763 -0.019652505 1.7870856e-20)
(0.19504411 -0.019157954 9.3552928e-21)
(0.21137301 -0.0186252 -1.6328325e-20)
(0.22785447 -0.0180618 -6.0185791e-21)
(0.2444503 -0.017474377 3.1445323e-21)
(0.26112393 -0.016868768 8.215513e-21)
(0.27784031 -0.016250148 6.9488981e-21)
(0.2945659 -0.015623134 -7.0338114e-21)
(0.31126876 -0.014991857 -3.3007948e-21)
(0.32791849 -0.014360024 1.4923933e-21)
(0.34448638 -0.013730958 5.6151835e-22)
(0.36094542 -0.013107634 1.2318997e-21)
(0.37727036 -0.012492699 2.1832251e-22)
(0.39343779 -0.011888494 -3.5610645e-22)
(0.40942615 -0.011297067 -7.3916445e-22)
(0.4252158 -0.010720191 1.0336206e-21)
(0.44078902 -0.010159372 8.5306506e-22)
(0.45612998 -0.0096158666 -2.280882e-22)
(0.47122479 -0.0090906951 5.800953e-22)
(0.48606143 -0.0085846562 -2.2882431e-22)
(0.5006297 -0.0080983443 -3.970992e-22)
(0.51492121 -0.0076321674 -6.1703946e-22)
(0.52892932 -0.0071863655 4.192344e-22)
(0.54264907 -0.0067610313 -7.7028091e-23)
(0.55607711 -0.0063561305 1.9949859e-22)
(0.56921176 -0.0059715234 -4.5723027e-22)
(0.58205278 -0.0056069937 4.2054364e-22)
(0.59460186 -0.0052622594 6.2753666e-23)
(0.60686142 -0.0049370599 -7.3981626e-23)
(0.61883858 -0.0046310223 2.0083982e-22)
(0.63053366 -0.0043443016 2.6854929e-22)
(0.64197688 -0.0040758391 2.0094834e-22)
(0.6531206 -0.0038294343 2.0997173e-22)
(0.66416399 -0.0035955608 -2.0539617e-23)
(0.67461126 -0.0034103711 1.0677222e-22)
(0.68602341 -0.0031771941 9.4768503e-23)
(0.69413805 -0.0032202179 -2.0091265e-22)
(0.71098069 -0.0027092647 -1.9308279e-23)
(0.077440319 -0.026876123 9.9969387e-21)
(0.084227019 -0.029549818 3.665492e-21)
(0.093741615 -0.031554495 -1.3231379e-20)
(0.10428694 -0.032649656 -1.4997955e-21)
(0.11519319 -0.033370309 1.569388e-20)
(0.12663237 -0.03384856 -1.5347065e-20)
(0.13864366 -0.034063653 -3.0884308e-20)
(0.15114899 -0.034045692 1.50586e-20)
(0.16409298 -0.033841907 1.8773591e-20)
(0.17744004 -0.033483628 -1.1930048e-20)
(0.19115221 -0.032993348 1.0357674e-21)
(0.20518951 -0.03239173 8.5100296e-21)
(0.2195135 -0.031697271 -1.5582856e-20)
(0.23408705 -0.030925716 3.47946e-21)
(0.2488738 -0.03009064 7.7028477e-21)
(0.26383807 -0.029203982 -3.2904088e-22)
(0.27894511 -0.028276306 4.334124e-23)
(0.29416107 -0.027316988 -7.5593229e-21)
(0.30945311 -0.026334407 4.2325096e-21)
(0.32478946 -0.025336086 8.5962073e-21)
(0.34013956 -0.024328802 -3.8746988e-21)
(0.35547413 -0.023318668 -2.185616e-21)
(0.37076529 -0.022311191 9.2872603e-22)
(0.38598665 -0.02131132 -1.7540761e-21)
(0.40111339 -0.02032348 1.3246643e-21)
(0.41612236 -0.019351597 7.0173307e-22)
(0.43099212 -0.018399123 1.7049269e-21)
(0.44570298 -0.017469055 -2.0961101e-21)
(0.46023707 -0.016563955 2.3808519e-21)
(0.47457828 -0.015685971 5.7734255e-22)
(0.48871232 -0.014836862 5.4101941e-22)
(0.50262668 -0.014018021 3.0820943e-22)
(0.51631059 -0.013230501 9.6704473e-22)
(0.52975499 -0.012475047 -1.4933041e-21)
(0.5429525 -0.011752125 4.1181395e-22)
(0.55589735 -0.011061955 1.8209717e-22)
(0.56858534 -0.010404546 -6.7546136e-23)
(0.58101387 -0.0097797305 4.0023237e-23)
(0.59318176 -0.0091872131 -3.909275e-22)
(0.60508972 -0.0086265873 2.0943605e-22)
(0.61673915 -0.0080974806 -3.158386e-23)
(0.62813613 -0.0075993315 4.898221e-22)
(0.63928003 -0.0071324516 -2.2867894e-22)
(0.65019959 -0.0066951387 4.0882794e-23)
(0.66084737 -0.0062937194 6.386627e-23)
(0.67141712 -0.0059125238 -8.6584709e-23)
(0.68142481 -0.0056111041 -1.445243e-22)
(0.6923883 -0.0052306464 4.6997199e-22)
(0.7001677 -0.0053024635 1.7845205e-22)
(0.71641244 -0.0044689231 -8.4486778e-22)
(0.16107579 -0.035232819 1.7111017e-21)
(0.16509048 -0.038967969 -1.1728655e-20)
(0.17286585 -0.041653991 6.6105486e-21)
(0.18179125 -0.043037552 -1.3822918e-20)
(0.19071253 -0.043980598 -2.0449721e-21)
(0.20000483 -0.044654863 9.7005525e-21)
(0.20982546 -0.044995013 -1.052641e-20)
(0.2200949 -0.04502995 1.2714959e-21)
(0.23076579 -0.044822861 1.321285e-20)
(0.24182531 -0.044413575 3.6837132e-21)
(0.25325223 -0.043828696 -6.320621e-21)
(0.26501733 -0.043093361 -3.1005829e-21)
(0.27709114 -0.042230851 -5.6410969e-21)
(0.28944421 -0.041261267 -6.6750933e-21)
(0.30204624 -0.040202089 2.9344491e-21)
(0.31486633 -0.039068878 4.7397363e-22)
(0.32787349 -0.037875592 1.5029799e-21)
(0.34103687 -0.036634782 -3.3830631e-21)
(0.35432597 -0.035357782 -4.4676699e-21)
(0.36771087 -0.034054868 2.4672453e-21)
(0.3811624 -0.032735382 3.4172528e-21)
(0.39465236 -0.031407808 -1.7459763e-21)
(0.40815364 -0.030079845 1.6518457e-21)
(0.42164038 -0.02875845 -4.7098604e-22)
(0.43508807 -0.027449878 -4.1742654e-21)
(0.44847368 -0.026159708 -3.051301e-21)
(0.46177571 -0.024892869 -2.5916626e-22)
(0.47497427 -0.023653664 3.5080298e-22)
(0.4880511 -0.022445799 -2.2071686e-21)
(0.50098963 -0.021272405 -9.9729468e-22)
(0.51377493 -0.020136069 2.2000328e-22)
(0.52639374 -0.019038872 -1.3470735e-21)
(0.53883446 -0.017982422 -4.0172202e-23)
(0.55108708 -0.016967895 -4.8167711e-22)
(0.56314317 -0.015996075 -4.5003257e-22)
(0.57499587 -0.015067405 -6.3402437e-22)
(0.58663979 -0.01418203 -9.8539455e-22)
(0.59807109 -0.013339847 -2.6206795e-23)
(0.60928733 -0.012540569 -3.6357864e-24)
(0.62028784 -0.011783754 -5.8460092e-22)
(0.63107272 -0.011069002 -4.185198e-23)
(0.64164658 -0.010395644 -3.9289679e-22)
(0.65200756 -0.00976422 -5.6051846e-22)
(0.66218236 -0.0091724742 4.5546927e-22)
(0.67212389 -0.0086292296 1.4066348e-23)
(0.68201821 -0.0081130145 2.234477e-22)
(0.69139827 -0.0077056391 -1.6347233e-22)
(0.70171992 -0.0071898017 -3.2014473e-22)
(0.70901982 -0.0072902198 -2.552535e-23)
(0.72440629 -0.0061605278 4.7785683e-22)
(0.26636017 -0.041079344 -2.2267651e-20)
(0.26669571 -0.045848083 4.9172577e-20)
(0.27186095 -0.049121745 1.0605766e-20)
(0.27846714 -0.050725055 -1.6383487e-20)
(0.28470153 -0.05188867 -2.3411976e-21)
(0.29112937 -0.052801542 2.4532185e-21)
(0.29807404 -0.05333695 -1.955256e-21)
(0.30545584 -0.053512132 -4.8106706e-21)
(0.313224 -0.053399269 -4.1176e-21)
(0.32138734 -0.053043467 -1.2488867e-20)
(0.32994284 -0.05247304 1.8585044e-20)
(0.33887134 -0.051714905 6.8550868e-21)
(0.34815086 -0.05079498 -1.7027298e-20)
(0.35775859 -0.049736347 1.0076517e-20)
(0.36766947 -0.048559458 8.0945426e-21)
(0.37785653 -0.047282809 -5.3698944e-22)
(0.38829172 -0.045923282 -2.904295e-21)
(0.39894647 -0.044496314 -4.1322049e-21)
(0.40979194 -0.043016048 -1.5324254e-21)
(0.42079945 -0.041495461 -1.3551886e-21)
(0.43194067 -0.039946466 -3.2618462e-21)
(0.44318794 -0.038379984 0)
(0.45451446 -0.036805997 -1.448202e-21)
(0.46589446 -0.035233587 3.970959e-21)
(0.47730334 -0.033670962 5.6033924e-21)
(0.48871782 -0.03212549 -9.1874779e-22)
(0.500116 -0.030603717 -3.1799482e-21)
(0.51147745 -0.029111393 3.3278405e-21)
(0.52278327 -0.027653504 1.0789809e-22)
(0.53401608 -0.026234302 3.6720277e-21)
(0.54516007 -0.024857341 -5.1584776e-22)
(0.556201 -0.023525522 1.7757429e-21)
(0.56712616 -0.022241137 -8.7430279e-22)
(0.57792436 -0.021005921 3.7548907e-22)
(0.58858592 -0.019821104 -5.0648661e-22)
(0.59910263 -0.018687472 5.7777153e-22)
(0.60946772 -0.017605425 5.1256355e-22)
(0.61967588 -0.016575039 4.3027493e-22)
(0.62972317 -0.015596152 -1.065836e-21)
(0.63960739 -0.014668392 7.616245e-22)
(0.64932706 -0.013791436 -4.0369405e-22)
(0.65888515 -0.012964612 -1.2826663e-21)
(0.66827835 -0.012188769 1.6371673e-21)
(0.67753098 -0.011461215 -5.7279875e-23)
(0.68659652 -0.010793212 -1.8559363e-22)
(0.69565144 -0.010157951 -7.2981627e-24)
(0.70425034 -0.0096579205 -1.7335704e-22)
(0.71377063 -0.009022323 -5.5253834e-22)
(0.72047263 -0.0091508542 8.1535724e-22)
(0.73478176 -0.0077599001 -4.8240151e-23)
(0.38839714 -0.043468494 -1.866814e-20)
(0.38418594 -0.049297671 1.310955e-20)
(0.38576737 -0.053107261 3.5511908e-21)
(0.38926787 -0.054952274 -7.9573356e-21)
(0.39214098 -0.056414994 1.2502004e-20)
(0.39504864 -0.057663675 8.0668877e-21)
(0.39850605 -0.058514642 -1.2809155e-20)
(0.40245018 -0.058970092 -6.2466651e-21)
(0.40681127 -0.059098329 1.3036244e-20)
(0.41160768 -0.058943562 -1.6122667e-20)
(0.41685207 -0.058534621 -1.4353694e-20)
(0.42253322 -0.057898752 1.4890162e-20)
(0.42863312 -0.057062687 6.9490847e-21)
(0.43513232 -0.056051327 -4.860568e-21)
(0.4420086 -0.05488753 -1.5201268e-21)
(0.44923692 -0.053592414 -3.7569808e-21)
(0.45679044 -0.052185622 4.9870051e-21)
(0.46464131 -0.050685461 3.6811528e-21)
(0.47276108 -0.049108972 -3.1662578e-21)
(0.48112112 -0.047471988 3.1286676e-21)
(0.48969296 -0.045789197 2.8937838e-21)
(0.49844862 -0.044074177 -3.3225718e-21)
(0.50736082 -0.04233943 3.6830978e-22)
(0.51640319 -0.040596398 -3.2118291e-21)
(0.52555044 -0.038855484 7.8520672e-21)
(0.53477847 -0.03712607 6.3871981e-21)
(0.54406453 -0.035416541 9.6640726e-22)
(0.55338722 -0.033734304 -1.8160423e-21)
(0.56272659 -0.032085828 4.0848833e-21)
(0.57206416 -0.030476674 7.7777605e-21)
(0.58138295 -0.028911545 2.3686502e-21)
(0.59066744 -0.027394334 3.580774e-21)
(0.59990363 -0.025928182 2.0942346e-21)
(0.60907895 -0.024515538 8.1875324e-22)
(0.6181823 -0.023158228 -2.5190247e-22)
(0.62720398 -0.021857523 2.9688056e-21)
(0.63613572 -0.020614216 6.7090575e-22)
(0.64497063 -0.019428693 3.1114169e-22)
(0.65370318 -0.018301042 5.6766107e-23)
(0.66232955 -0.017231082 1.1371766e-21)
(0.67084663 -0.01621868 4.3961706e-23)
(0.67925563 -0.015263271 5.3084396e-22)
(0.6875518 -0.014366103 -1.2647055e-22)
(0.69575684 -0.013524172 -3.5715163e-22)
(0.70382514 -0.012751098 -1.8324112e-22)
(0.7119221 -0.012015281 -5.0388994e-22)
(0.71962791 -0.011437974 2.1040947e-22)
(0.72822811 -0.01070087 -1.4951991e-22)
(0.73424532 -0.010856752 -4.6577271e-22)
(0.74730818 -0.0092455526 2.6941387e-22)
(0.52113293 -0.04147613 3.5140635e-21)
(0.51172172 -0.048401741 -1.9212059e-20)
(0.50877485 -0.052750608 -2.4901936e-21)
(0.50838874 -0.055021266 5.6286715e-21)
(0.5073652 -0.057003129 3.404798e-21)
(0.50627173 -0.058773132 3.7532919e-22)
(0.50578494 -0.060121789 6.8419868e-21)
(0.50590158 -0.061052166 7.9734196e-21)
(0.50652984 -0.061618382 1.0023429e-20)
(0.50767496 -0.061854929 -1.1652223e-20)
(0.50935494 -0.061789542 -2.2470832e-20)
(0.51156353 -0.061449908 -4.3136167e-21)
(0.51428294 -0.060863129 1.6513381e-20)
(0.51749286 -0.060055529 1.320203e-20)
(0.52117056 -0.059052406 -5.801353e-21)
(0.52529049 -0.057877785 1.0668961e-21)
(0.52982496 -0.056554431 -4.0093714e-21)
(0.53474509 -0.055103908 2.8055464e-21)
(0.54002132 -0.05354657 -2.9268098e-22)
(0.54562384 -0.051901537 -1.9339008e-21)
(0.55152295 -0.050186689 8.2723058e-21)
(0.55768938 -0.048418667 -4.2361108e-22)
(0.56409455 -0.046612878 5.3949072e-22)
(0.57071074 -0.044783487 -5.2771467e-22)
(0.57751131 -0.042943429 -4.4417306e-21)
(0.58447081 -0.041104419 4.3381786e-21)
(0.59156506 -0.03927697 1.8642357e-21)
(0.59877128 -0.037470421 -3.3983732e-21)
(0.60606809 -0.035692971 -4.091131e-21)