/*--------------------------------*- C++ -*----------------------------------*\
  =========                 |
  \\      /  F ield         | OpenFOAM: The Open Source CFD Toolbox
   \\    /   O peration     | Website:  https://openfoam.org
    \\  /    A nd           | Version:  6
     \\/     M anipulation  |
\*---------------------------------------------------------------------------*/
FoamFile
{
    version     2.0;
    format      ascii;
    class       surfaceScalarField;
    location    "43";
    object      phi;
}
// * * * * * * * * * * * * * * * * * * * * * * * * * * * * * * * * * * * * * //

dimensions      [0 3 -1 0 0 0 0];

internalField   nonuniform List<scalar> 
18180
(
0.00032071959
-0.00016707905
-0.00015364051
0.0013171804
-0.0013829915
0.00038653071
0.0030510586
-0.003366216
0.0016323378
0.0055826086
-0.0060292464
0.0034976965
0.0089703599
-0.009317104
0.0059293528
0.013269081
-0.013186186
0.0088874653
0.018527068
-0.017598814
0.012340827
0.024783124
-0.022520478
0.016264422
0.032063357
-0.027916681
0.020636447
0.040378072
-0.033750311
0.025435597
0.04971905
-0.039979881
0.030638902
0.06005763
-0.046558616
0.036220037
0.071343957
-0.05343439
0.042148063
0.083507896
-0.060550519
0.04838658
0.09646219
-0.067847517
0.054893223
0.11010839
-0.075265916
0.061619712
0.12434502
-0.082749988
0.068513358
0.13908285
-0.090252074
0.075514245
0.15431843
-0.097754449
0.08251887
-0.10525458
0.089325033
0.17024799
0.00039976114
-0.00056684017
0.0016185499
-0.0026017802
0.0037095188
-0.005457185
0.0067235441
-0.0090432717
0.010707315
-0.013300875
0.015699613
-0.018178484
0.021727241
-0.023626443
0.028801015
-0.029594251
0.036912091
-0.036027757
0.046029062
-0.042867282
0.056096235
-0.050047054
0.067033475
-0.057495856
0.078737833
-0.065138748
0.091087066
-0.072899752
0.10394481
-0.080705265
0.11716683
-0.088487927
0.13060726
-0.096190428
0.14412559
-0.1037704
0.15758552
-0.11121438
-0.11845347
0.17078441
0.00048314769
-0.0010499878
0.0019285239
-0.0040471563
0.0043743522
-0.0079030133
0.0078551321
-0.012524052
0.012397326
-0.017843069
0.018013887
-0.023795045
0.024699126
-0.030311681
0.032424407
-0.037319532
0.041135121
-0.044738471
0.050749425
-0.052481585
0.061159117
-0.060456747
0.072232833
-0.068569572
0.083821407
-0.076727322
0.095764986
-0.084843331
0.10790114
-0.092841419
0.12007289
-0.10065967
0.13213543
-0.10825297
0.14395963
-0.11559459
0.15542439
-0.12267914
-0.12945761
0.16642852
0.00056892319
-0.001618911
0.0022384608
-0.0057166939
0.0050236627
-0.010688215
0.0089340096
-0.016434398
0.013966055
-0.022875115
0.020096491
-0.029925481
0.027276779
-0.037491969
0.03542982
-0.045472573
0.044449122
-0.053757773
0.054200831
-0.062233293
0.064528658
-0.070784574
0.075261364
-0.079302278
0.086222078
-0.087688036
0.097238441
-0.095859694
0.10815242
-0.1037554
0.11882867
-0.11133592
0.12916046
-0.11858477
0.1390723
-0.12550643
0.14851664
-0.13212348
-0.13843635
0.15749538
0.00065381486
-0.0022727258
0.0025352988
-0.0075981778
0.0056272186
-0.013780135
0.009904623
-0.020711803
0.015324387
-0.028294879
0.021817647
-0.036418741
0.029285541
-0.044959862
0.037598432
-0.053785464
0.046598866
-0.062758207
0.056108108
-0.071742535
0.065935633
-0.080612099
0.075890477
-0.089257122
0.085793067
-0.097590626
0.095486086
-0.10555271
0.10484307
-0.11311238
0.11377388
-0.12026673
0.12222672
-0.12703761
0.13018681
-0.13346652
0.13767178
-0.13960845
-0.14550816
0.14474358
0.00073366365
-0.0030063895
0.0028031603
-0.0096676745
0.0061499246
-0.017126899
0.010705602
-0.025267481
0.016379111
-0.033968387
0.023049801
-0.043089432
0.030565902
-0.052475964
0.038747813
-0.061967375
0.047395857
-0.071406251
0.056301506
-0.080648183
0.065260556
-0.089571149
0.07408642
-0.098082986
0.082621724
-0.10612593
0.090746765
-0.11367775
0.098383902
-0.12074952
0.10549772
-0.12738054
0.1120915
-0.13363139
0.11820099
-0.139576
0.12388676
-0.14529422
-0.15085784
0.12923644
0.00080376566
-0.0038101551
0.0030247391
-0.011888648
0.0065551803
-0.02065734
0.011276209
-0.029988509
0.017043624
-0.039735803
0.023683437
-0.049729245
0.03099449
-0.059787016
0.038756708
-0.069729593
0.046743598
-0.07939314
0.054736995
-0.088641581
0.06254172
-0.097375874
0.069997883
-0.10553915
0.076989179
-0.11311723
0.08344623
-0.12013481
0.089345005
-0.1266483
0.094701093
-0.13273663
0.099561241
-0.13849154
0.10399379
-0.14400855
0.10807958
-0.14938001
-0.15468738
0.11190912
0.00085899614
-0.0046691512
0.0031822439
-0.014211896
0.0068076172
-0.024282714
0.011561849
-0.034742741
0.017246888
-0.045420842
0.023639392
-0.056121749
0.030498411
-0.066646035
0.037578452
-0.076809634
0.044645436
-0.086460125
0.051492655
-0.095488799
0.057953933
-0.10383715
0.063911998
-0.11149721
0.069301062
-0.11850629
0.074103771
-0.12493751
0.078343662
-0.13088819
0.082074798
-0.13646777
0.085370559
-0.1417873
0.088313272
-0.14695126
0.090986012
-0.15205275
-0.15717005
0.093468678
0.00089298938
-0.0055621406
0.0032574401
-0.016576346
0.0068753534
-0.027900627
0.011519229
-0.039386616
0.016941299
-0.050842912
0.022878105
-0.062058556
0.029063157
-0.072831087
0.035243561
-0.082990038
0.041197137
-0.092413701
0.046746676
-0.10103834
0.051768779
-0.10885925
0.056196107
-0.11592454
0.060013293
-0.12232348
0.063247874
-0.1281721
0.065958319
-0.13359863
0.068221383
-0.13873083
0.070120667
-0.14368658
0.07173777
-0.14856836
0.073146583
-0.15346156
-0.15843395
0.07441048
0.00090223263
-0.0064643732
0.0032411851
-0.018915299
0.0067436297
-0.031403072
0.011131811
-0.043774797
0.016117078
-0.055828179
0.021409466
-0.067350945
0.02673418
-0.0781558
0.031849499
-0.088105357
0.036562199
-0.097126401
0.040737273
-0.10521341
0.044300413
-0.11242239
0.047233356
-0.11885749
0.049563697
-0.12465382
0.051351545
-0.12995994
0.052675544
-0.13492263
0.053620391
-0.13967568
0.054267257
-0.14433345
0.054687718
-0.14898883
0.054940998
-0.15371484
0.055072925
-0.15856587
-0.00020359234
0.00020359237
6.0066037e-12
-0.00068163673
0.0004780444
1.9628382e-11
-0.0013498636
0.00066822688
2.8322715e-11
-0.0021437179
0.00079385429
3.6610762e-11
-0.0030112764
0.00086755853
4.5300813e-11
-0.0039101304
0.00089885395
5.1784446e-11
-0.0048051305
0.00089500009
5.6794759e-11
-0.0056665009
0.00086137037
5.6897819e-11
-0.006468355
0.00080185417
5.4291538e-11
-0.0071875342
0.00071917918
4.4373901e-11
-0.0078026799
0.00061514568
3.14386e-11
-0.0082934905
0.00049081062
8.9544507e-12
-0.0086401343
0.00034664397
-1.6658192e-11
-0.0088228097
0.00018267546
-5.4894574e-11
-0.0088214829
-1.326671e-06
-9.5763628e-11
-0.0086159096
-0.00020557312
-1.5307062e-10
-0.0081858986
-0.00043001065
-2.1254534e-10
-0.0075109024
-0.00067499594
-2.911122e-10
-0.0065696004
-0.00094130154
-3.682499e-10
-0.0012152432
-0.0053543568
-4.5743383e-10
-0.00018904241
0.00039263479
-0.00062838584
0.00091738787
-0.001235117
0.0012749581
-0.0019447846
0.0015035219
-0.0027048398
0.0016276138
-0.0034716705
0.0016656847
-0.0042084346
0.0016317642
-0.0048832342
0.0015361701
-0.0054676653
0.0013862853
-0.0059356713
0.0011871852
-0.006262619
0.00094209339
-0.0064245481
0.00065273975
-0.0063975592
0.00031965513
-0.006157327
-5.7556717e-05
-0.0056787683
-0.00047988532
-0.0049359573
-0.00094838412
-0.0039023379
-0.00146363
-0.0025506458
-0.002026688
-0.00085275114
-0.0026391962
-0.0032711935
0.0012031992
-0.00015971725
0.00055235207
-0.00052129433
0.001278965
-0.0010050856
0.0017587493
-0.0015473581
0.0020457945
-0.0020947256
0.0021749813
-0.0026015351
0.0021724942
-0.0030279062
0.0020581353
-0.0033380487
0.0018463127
-0.0034989058
0.0015471424
-0.0034790671
0.0011673465
-0.0032478772
0.00071090358
-0.0027747077
0.00017957022
-0.0020283163
-0.00042673624
-0.00097632873
-0.0011095442
0.00041519668
-0.0018714107
0.0021820555
-0.0027152429
0.0043618654
-0.00364344
0.0069937532
-0.0046585758
0.010118278
-0.0057637212
-0.0069084767
0.013755561
-0.00011798615
0.00067033824
-0.00036809312
0.001529072
-0.00067507047
0.0020657267
-0.00097620982
0.0023469338
-0.0012170316
0.0024158031
-0.0013491401
0.0023046027
-0.0013285534
0.0020375486
-0.0011142371
0.0016319964
-0.00066689874
0.0010998041
5.1972284e-05
0.0004484755
0.0010808958
-0.0003180199
0.0024590511
-0.0011985851
0.0042268244
-0.0021945096
0.0064262927
-0.0033090124
0.0091017316
-0.0045468497
0.012300177
-0.0059136884
0.016071805
-0.0074150682
0.020469634
-0.0090564042
0.025549305
-0.010843393
-0.012701354
0.031342183
-6.6913628e-05
0.00073725189
-0.00017877945
0.0016409378
-0.0002649409
0.0021518882
-0.00026366679
0.0023456598
-0.00011909303
0.0022712294
0.00022042163
0.001965088
0.00080363119
0.0014543391
0.0016775784
0.00075804923
0.0028885711
-0.00011118852
0.0044829703
-0.0011459237
0.0065077543
-0.0023428039
0.0090109331
-0.0037017638
0.012041871
-0.0052254472
0.015651607
-0.0069187491
0.019893222
-0.0087884646
0.024822443
-0.010842909
0.030498522
-0.013091146
0.036984745
-0.015542628
0.044349219
-0.018207866
-0.02098728
0.052635144
-9.5785785e-06
0.00074683049
3.6429168e-05
0.0015949301
0.00020472223
0.0019835952
0.00055638851
0.0019939935
0.001148945
0.0016786729
0.002037498
0.0010765351
0.0032757092
0.00021612788
0.0049166798
-0.00088292137
0.0070136057
-0.0022081144
0.0096201466
-0.0037524645
0.01279063
-0.0055132874
0.016580145
-0.0074912788
0.021044453
-0.0096897555
0.026239808
-0.012114103
0.032222826
-0.014771483
0.039050759
-0.017670843
0.046782645
-0.020823032
0.055481358
-0.024241341
0.065217471
-0.027943979
-0.031812503
0.076042694
5.1538269e-05
0.00069529224
0.00026897842
0.00137749
0.00071619004
0.0015363836
0.0014540533
0.0012561303
0.0025418345
0.00059089171
0.004037943
-0.00041957337
0.0060005208
-0.0017464499
0.0084878214
-0.0033702219
0.011558331
-0.0052786236
0.015270724
-0.0074648582
0.019683581
-0.0099261443
0.024854834
-0.012662532
0.030841007
-0.015675928
0.037696284
-0.01896938
0.045471532
-0.022546732
0.054213712
-0.026413022
0.063966627
-0.030575946
0.074774276
-0.03504899
0.086689794
-0.039859498
-0.044890951
0.099768243
0.00011492081
0.00058037145
0.00051311779
0.00097929301
0.0012567641
0.00079273731
0.0024067774
0.00010611701
0.0040239258
-0.0010262567
0.0061691572
-0.0025648048
0.0089035638
-0.0044808565
0.012288189
-0.0067548471
0.016383601
-0.0093740352
0.021249119
-0.012330377
0.02694175
-0.015618775
0.033514822
-0.019235605
0.041016366
-0.023177472
0.049487265
-0.027440279
0.05895932
-0.032018786
0.06945358
-0.036907282
0.080980111
-0.042102477
0.093541052
-0.047609931
0.10714204
-0.053460489
-0.059574306
0.1218254
0.00017991632
0.00040045514
0.00076579774
0.00039341162
0.0018186723
-0.00026013724
0.003399175
-0.0014743857
0.0055685204
-0.003195602
0.0083882233
-0.0053845077
0.011919449
-0.0080120825
0.016222061
-0.011057459
0.021353303
-0.014505277
0.027366141
-0.018343215
0.034307295
-0.022559929
0.042214995
-0.027143305
0.05111652
-0.032078997
0.061025529
-0.037349288
0.071939198
-0.042932455
0.083835206
-0.04880329
0.096669536
-0.054936808
0.11037781
-0.061318209
0.12488869
-0.067971364
-0.074901109
0.14021549
0.00024681464
0.001026757
0.0023989576
0.0044222684
0.0071560192
0.010658977
0.014987722
0.020194685
0.026325855
0.033418237
0.04149721
0.050573942
0.060643008
0.0716803
0.083641068
0.096457489
0.11003404
0.12423008
0.13877758
0.15320151
-0.0033785669
-0.0019757892
-7.5366397e-10
-0.0011164247
-0.0022621414
-9.1993414e-10
0.0014100924
-0.0025265161
-1.0872985e-09
0.0041438476
-0.0027337541
-1.2495447e-09
0.0070581586
-0.0029143097
-1.3960708e-09
0.010135993
-0.0030778334
-1.5179256e-09
0.013358647
-0.0032226526
-1.6035238e-09
0.016708307
-0.0033496578
-1.6259415e-09
0.0201695
-0.0034611923
-1.5727406e-09
0.023728261
-0.0035587594
-1.4278099e-09
0.027371568
-0.0036433057
-1.1762248e-09
0.03108728
-0.0037157117
-7.9762267e-10
0.034864066
-0.0037767852
-2.6659148e-10
0.038691269
-0.0038272039
4.4174699e-10
0.042558817
-0.003867549
1.3501211e-09
0.046457157
-0.0038983427
2.4717668e-09
0.050377219
-0.0039200661
3.8115455e-09
0.054310388
-0.0039331737
5.3575195e-09
0.058248489
-0.0039381086
7.0840359e-09
0.062183795
-0.0039353149
8.9403879e-09
0.066109032
-0.0039252484
1.0856677e-08
0.070017403
-0.0039083835
1.2730344e-08
0.073902608
-0.0038852197
1.4438158e-08
0.077758878
-0.0038562851
1.5821484e-08
0.081581001
-0.0038221396
1.6708722e-08
0.08536436
-0.0037833767
1.6901084e-08
0.089104969
-0.0037406247
1.6210209e-08
0.092799503
-0.0036945487
1.4446204e-08
0.096445344
-0.0036458524
1.1473632e-08
0.10004062
-0.0035952801
7.2020007e-09
0.10358424
-0.0035436217
1.6581225e-09
0.10707596
-0.0034917167
-5.0281057e-09
0.11051643
-0.0034404604
-1.2545623e-08
0.11390726
-0.0033908108
-2.0439984e-08
0.11725109
-0.0033437954
-2.804977e-08
0.12055164
-0.0033005183
-3.4601647e-08
0.12381384
-0.0032621643
-3.9179899e-08
0.12704388
-0.00323
-4.0919251e-08
0.1302493
-0.0032053766
-3.8982965e-08
0.13343903
-0.003189702
-3.2875314e-08
0.13662354
-0.0031844891
-2.2364234e-08
0.13981466
-0.0031911085
-7.8254587e-09
0.14302615
-0.0032115032
9.8279961e-09
0.14627186
-0.0032457374
2.9077797e-08
0.14957183
-0.0033000168
4.8015191e-08
0.15293329
-0.0033615212
6.4454829e-08
0.15641402
-0.0034808068
7.6675515e-08
0.15993467
-0.0035207381
8.2294981e-08
0.16386701
-0.0039324166
8.4289504e-08
-0.0036656895
6.5232869e-08
0.0030605848
-0.0038331749
0.0051993234
-0.00440088
0.0075890536
-0.0049162464
0.010167077
-0.0053117776
0.012912451
-0.0056596838
0.015813158
-0.0059785404
0.018852702
-0.0062621973
0.022014893
-0.0065118483
0.02528595
-0.0067322498
0.028653375
-0.0069261841
0.032105311
-0.0070952416
0.035630571
-0.0072409722
0.03921862
-0.0073648335
0.04285946
-0.0074680446
0.046543562
-0.0075516508
0.050261821
-0.0076166011
0.054005535
-0.0076637802
0.057766395
-0.0076940338
0.061536482
-0.0077081963
0.065308281
-0.0077071141
0.069074697
-0.0076916637
0.072829078
-0.007662765
0.076565251
-0.0076213921
0.080277545
-0.00756858
0.083960835
-0.0075054296
0.087610569
-0.0074331104
0.091222808
-0.0073528634
0.094794263
-0.0072660037
0.098322334
-0.007173924
0.10180515
-0.0070780994
0.10524163
-0.0069800954
0.10863149
-0.006881577
0.11197535
-0.0067843207
0.11527477
-0.0066902284
0.11853231
-0.0066013407
0.12175164
-0.0065198505
0.12493759
-0.0064481134
0.12809624
-0.006388648
0.13123501
-0.0063441439
0.13436271
-0.006317404
0.13748967
-0.006311449
0.14062758
-0.0063290156
0.14379007
-0.0063740022
0.14699088
-0.0064465429
0.15024995
-0.0065590909
0.15357446
-0.0066860285
0.15702192
-0.0069282663
0.16051365
-0.0070124682
0.16441656
-0.0078353251
-0.0073136934
0.015366227
-0.0054438404
0.017240754
-0.0062754072
0.019342408
-0.0070179004
0.021601072
-0.0075704416
0.024005269
-0.0080638814
0.026551691
-0.0085249624
0.029227989
-0.0089384953
0.032020912
-0.009304771
0.034919614
-0.0096309516
0.037914145
-0.0099207151
0.040994678
-0.010175775
0.044151663
-0.010397958
0.047375913
-0.010589083
0.050658537
-0.010750669
0.053990906
-0.01088402
0.057364652
-0.010990347
0.060771675
-0.011070803
0.064204158
-0.011126517
0.06765459
-0.011158629
0.071115793
-0.011168317
0.074580951
-0.011156821
0.078043647
-0.011125461
0.081497901
-0.011075646
0.084938204
-0.011008883
0.088359561
-0.010926786
0.091757524
-0.010831073
0.095128233
-0.010723573
0.098468457
-0.010606228
0.10177563
-0.010481096
0.10504789
-0.010350362
0.10828414
-0.010216344
0.11148407
-0.010081511
0.11464825
-0.0099484975
0.11777815
-0.0098201269
0.12087624
-0.00969943
0.12394605
-0.0095896652
0.12699228
-0.0094943354
0.13002082
-0.009417189
0.1330389
-0.0093622321
0.13605515
-0.0093336462
0.13907965
-0.0093359481
0.14212387
-0.0093732413
0.14520126
-0.0094513925
0.14832537
-0.009570654
0.15151599
-0.0097497054
0.15478042
-0.0099504642
0.15817515
-0.010322991
0.16162458
-0.010461905
0.16548184
-0.011692579
-0.010943859
0.032567264
-0.0066689214
0.034027428
-0.0077355713
0.035681735
-0.0086722079
0.037457275
-0.0093459812
0.039354962
-0.009961569
0.041381441
-0.010551441
0.043529831
-0.011086885
0.045790866
-0.011565806
0.048157242
-0.011997328
0.050622029
-0.012385502
0.053177829
-0.012731575
0.055817017
-0.013037145
0.058531932
-0.013303998
0.061314914
-0.01353365
0.064158313
-0.01372742
0.067054542
-0.013886575
0.069996118
-0.014012379
0.072975721
-0.01410612
0.075986238
-0.014169146
0.07902081
-0.014202889
0.082072883
-0.014208894
0.085136252
-0.014188831
0.08820511
-0.014144504
0.091274091
-0.014077864
0.09433831
-0.013991005
0.097393407
-0.013886171
0.10043559
-0.013765756
0.10346167
-0.013632305
0.10646909
-0.013488523
0.10945601
-0.013337278
0.11242129
-0.013181622
0.11536458
-0.013024801
0.11828637
-0.012870286
0.12118804
-0.012721795
0.12407193
-0.012583321
0.12694142
-0.01245916
0.12980102
-0.012353935
0.13265643
-0.012272596
0.13551463
-0.012220436
0.13838398
-0.012202994
0.1412743
-0.012226268
0.14419679
-0.012295729
0.14716462
-0.012419227
0.15019118
-0.012597212
0.153296
-0.012854522
0.15648673
-0.0131412
0.15981813
-0.01365439
0.16321983
-0.013863607
0.16702337
-0.015496116
-0.014561963
0.053318195
-0.0073519725
0.054203983
-0.0086213588
0.055246203
-0.0097144277
0.056379599
-0.010479378
0.057619347
-0.011201317
0.058980045
-0.011912138
0.060460498
-0.012567339
0.062056132
-0.01316144
0.063763029
-0.013704225
0.065576897
-0.01419937
0.06749254
-0.014647218
0.06950403
-0.015048635
0.071604965
-0.015404934
0.073788634
-0.015717319
0.076048111
-0.015986898
0.078376345
-0.016214809
0.080766247
-0.016402282
0.083210785
-0.016550658
0.085703052
-0.016661412
0.088236338
-0.016736175
0.090804195
-0.016776751
0.093400496
-0.016785131
0.096019485
-0.016763493
0.09865583
-0.016714209
0.10130467
-0.016639847
0.10396166
-0.01654316
0.106623
-0.016427099
0.1092855
-0.016294801
0.11194658
-0.016149605
0.11460436
-0.015995053
0.11725765
-0.015834912
0.11990603
-0.015673191
0.12254993
-0.015514177
0.12519059
-0.015362459
0.12783024
-0.015222972
0.1304721
-0.015101023
0.13312049
-0.015002322
0.13578088
-0.01493299
0.13846003
-0.014899581
0.141166
-0.014908962
0.14390832
-0.014968593
0.1466979
-0.015085311
0.14954764
-0.015268965
0.15247073
-0.015520302
0.15548642
-0.015870211
0.15860287
-0.016257651
0.16187256
-0.016924075
0.16523205
-0.017223104
0.16898505
-0.019249115
-0.018182065
0.07601271
-0.0073219888
0.076160925
-0.0087695735
0.076430783
-0.0099842851
0.076779494
-0.010828089
0.077235571
-0.011657394
0.077816113
-0.01249268
0.078524428
-0.013275653
0.079360765
-0.013997776
0.080323745
-0.014667205
0.081410529
-0.015286154
0.082617199
-0.015853888
0.083938804
-0.016370241
0.085369526
-0.016835656
0.086902975
-0.017250768
0.088532394
-0.017616317
0.09025079
-0.017933204
0.092051045
-0.018202538
0.093926036
-0.01842565
0.095868735
-0.018604111
0.09787229
-0.018739731
0.099930106
-0.018834567
0.1020359
-0.018890929
0.10418379
-0.018911376
0.10636829
-0.018898712
0.10858443
-0.018855986
0.11082775
-0.018786476
0.11309434
-0.018693697
0.11538093
-0.018581388
0.11768485
-0.018453528
0.12000414
-0.018314337
0.12233752
-0.018168296
0.12468451
-0.018020176
0.1270454
-0.01787507
0.12942137
-0.01773843
0.13181451
-0.017616112
0.1342279
-0.017514415
0.1366657
-0.017440115
0.13913318
-0.017400474
0.14163688
-0.017403276
0.1441846
-0.017456686
0.14678561
-0.017569601
0.14945052
-0.017750225
0.15219196
-0.018010403
0.15502295
-0.018351296
0.15796245
-0.018809707
0.16101922
-0.019314421
0.16424307
-0.020147929
0.16757878
-0.020558812
0.17129762
-0.02296796
-0.021827937
0.098877677
-0.0064314232
0.098149346
-0.0080412412
0.097514085
-0.0093490242
0.096973453
-0.010287457
0.096564043
-0.011247984
0.096297297
-0.012225934
0.096178823
-0.01315718
0.096212944
-0.014031898
0.096399516
-0.014853777
0.096735582
-0.01562222
0.097217101
-0.016335407
0.097839002
-0.016992142
0.098595159
-0.017591813
0.099478721
-0.018134331
0.10048242
-0.018620013
0.10159872
-0.01904951
0.10281999
-0.019423807
0.10413859
-0.019744242
0.10554697
-0.0200125
0.10703784
-0.020230598
0.10860416
-0.020400882
0.11023924
-0.020526017
0.11193685
-0.020608982
0.11369119
-0.020653051
0.11549699
-0.02066179
0.11734956
-0.020639042
0.11924477
-0.020588912
0.12117917
-0.02051578
0.12314993
-0.020424289
0.12515494
-0.020319355
0.12719285
-0.0202062
0.12926304
-0.020090365
0.13136572
-0.019977757
0.13350199
-0.019874695
0.13567383
-0.019787954
0.13788423
-0.019724812
0.14013721
-0.019693094
0.14243791
-0.019701181
0.1447927
-0.01975806
0.14720917
-0.019873159
0.14969636
-0.020056788
0.15226463
-0.020318499
0.15492637
-0.020672139
0.15769444
-0.021119372
0.16058752
-0.021702778
0.16361501
-0.02234192
0.16682384
-0.023356758
0.17016772
-0.023902687
0.17388271
-0.026682949
-0.025533513
0.12003164
-0.0046376656
0.1183719
-0.0063814953
0.11676779
-0.0077449148
0.11530354
-0.0088232094
0.11401563
-0.009960073
0.11290177
-0.011112073
0.11196766
-0.012223068
0.11121986
-0.013284099
0.11065809
-0.014292012
0.11027808
-0.015242204
0.11007431
-0.016131643
0.11004047
-0.016958295
0.11016929
-0.017720635
0.11045284
-0.018417882
0.11088279
-0.019049968
0.11145065
-0.019617361
0.11214784
-0.020121002
0.1129659
-0.020562301
0.11389652
-0.020943122
0.11493168
-0.021265756
0.1160637
-0.021532901
0.11728532
-0.02174764
0.11858977
-0.02191343
0.11997079
-0.022034076
0.12142272
-0.022113718
0.12294049
-0.022156811
0.12451969
-0.022168115
0.1261566
-0.022152687
0.12784819
-0.022115879
0.12959219
-0.022063353
0.13138708
-0.022001096
0.13323217
-0.021935453
0.13512759
-0.021873172
0.13707434
-0.021821449
0.13907438
-0.021787988
0.14113061
-0.021781051
0.14324702
-0.021809502
0.14542867
-0.021882828
0.1476818
-0.022011189
0.15001389
-0.022205252
0.1524338
-0.022476697
0.1549517
-0.022836403
0.15757977
-0.023300203
0.16033073
-0.023870334
0.16322297
-0.024595016
0.16626655
-0.025385501
0.16950537
-0.02659558
0.17290237
-0.027299684
0.1766571
-0.03043768
-0.029342383
0.13765923
-0.0020814019
0.13516715
-0.0038894118
0.13263819
-0.0052159598
0.13031382
-0.0064988362
0.12822108
-0.0078673323
0.12634158
-0.0092325761
0.1246784
-0.01055989
0.12323686
-0.011842552
0.12201566
-0.013070813
0.12100934
-0.014235885
0.12021071
-0.015333013
0.11961174
-0.01635933
0.11920379
-0.01731268
0.11897767
-0.018191771
0.11892393
-0.018996224
0.11903296
-0.019726394
0.11929522
-0.020383257
0.11970129
-0.020968368
0.120242
-0.021483836
0.12090854
-0.021932292
0.12169248
-0.022316846
0.12258591
-0.022641067
0.12358144
-0.022908955
0.12467227
-0.023124907
0.12585225
-0.023293703
0.12711592
-0.023420476
0.1284585
-0.023510694
0.12987596
-0.023570155
0.13136506
-0.023604979
0.13292333
-0.023621619
0.13454911
-0.02362688
0.13624161
-0.023627952
0.1380009
-0.023632457
0.13982795
-0.023648501
0.1417247
-0.023684738
0.14369407
-0.023750422
0.14574004
-0.023855466
0.14786766
-0.024010447
0.15008315
-0.024226684
0.15239394
-0.024516044
0.15480879
-0.024891541
0.15733771
-0.02536533
0.15999272
-0.025955211
0.16278641
-0.026664017
0.16573687
-0.027545483
0.16885475
-0.028503375
0.17218086
-0.029921698
0.17568743
-0.030806247
0.1795368
-0.03428705
-0.033306477
0.15068026
0.00043984456
0.14741238
-0.00062153203
0.14413998
-0.0019435582
0.14111982
-0.0034786791
0.13835511
-0.0051026173
0.13583984
-0.006717311
0.13357618
-0.0082962229
0.13156443
-0.0098308008
0.12980239
-0.011308773
0.12828514
-0.012718637
0.12700517
-0.014053046
0.12595341
-0.015307563
0.12512
-0.016479277
0.12449466
-0.017566433
0.12406679
-0.018568351
0.12382569
-0.01948529
0.12376073
-0.020318297
0.12386149
-0.021069132
0.12411787
-0.021740213
0.12452014
-0.022334568
0.12505909
-0.022855793
0.12572603
-0.023308008
0.1265129
-0.023695825
0.12741231
-0.024024312
0.12841756
-0.024298958
0.12952273
-0.024525645
0.13072266
-0.024710626
0.13201301
-0.024860506
0.13339028
-0.024982241
0.1348518
-0.025083139
0.1363958
-0.025170882
0.1380214
-0.025253557
0.13972865
-0.025339708
0.14151854
-0.025438391
0.14339305
-0.025559239
0.14535515
-0.025712525
0.14740889
-0.025909211
0.14955942
-0.026160971
0.15181299
-0.026480259
0.15417706
-0.026880107
0.15666033
-0.027374818
0.15927275
-0.027977748
0.16202617
-0.028708635
0.16493298
-0.029570826
0.16801112
-0.030623625
0.17127122
-0.031763467
0.17475237
-0.033402853
0.17843142
-0.034485291
0.18244598
-0.03830161
-0.037478432
0.18985456
0.005001218
-0.19441593
0.18608392
0.0031491058
0.18273238
0.0014079787
0.17962971
-0.00037600653
0.17673855
-0.0022114558
0.17403399
-0.0040127492
0.17149809
-0.0057603252
0.16912211
-0.0074548227
0.16690241
-0.0090890674
0.16483708
-0.010653305
0.16292454
-0.012140509
0.16116299
-0.013546017
0.15955012
-0.014866406
0.15808299
-0.016099297
0.15675804
-0.017243409
0.15557124
-0.018298481
0.15451808
-0.019265139
0.15359376
-0.020144813
0.15279323
-0.020939684
0.15211129
-0.02165263
0.15154268
-0.022287183
0.15108215
-0.022847476
0.15072453
-0.023338205
0.1504648
-0.023764584
0.15029816
-0.024132309
0.15022003
-0.024447522
0.15022619
-0.024716785
0.15031274
-0.024947055
0.15047618
-0.025145679
0.15071343
-0.025320391
0.15102188
-0.02547933
0.15139939
-0.025631072
0.15184436
-0.025784672
0.15235569
-0.025949724
0.15293287
-0.026136413
0.15357592
-0.026355578
0.15428547
-0.026618759
0.1550627
-0.026938201
0.15590937
-0.027326928
0.15682778
-0.02779852
0.15782084
-0.028367884
0.15889198
-0.029048885
0.16004567
-0.029862323
0.16128642
-0.030811574
0.16262255
-0.031959759
0.16405651
-0.03319742
0.16561263
-0.034958975
0.16726008
-0.036132747
0.16911776
-0.040159287
-0.039352181
0.21777002
0.008359457
-0.22112826
0.21433818
0.0065809493
0.21116792
0.0045782398
0.20810697
0.0026849393
0.20510665
0.00078886924
0.20219797
-0.0011040658
0.19939803
-0.0029603866
0.19671161
-0.0047684031
0.19414485
-0.0065223116
0.19170486
-0.0082133131
0.18939714
-0.0098327844
0.1872254
-0.011374284
0.18519201
-0.012833009
0.18329802
-0.014205309
0.18154331
-0.015488698
0.17992669
-0.016681858
0.17844607
-0.017784528
0.17709867
-0.018797409
0.17588108
-0.01972209
0.17478944
-0.020560996
0.17381959
-0.021317324
0.1729671
-0.021994988
0.17222746
-0.022598563
0.17159611
-0.023133239
0.17106857
-0.023604768
0.17064048
-0.024019428
0.17030767
-0.024383982
0.17006627
-0.024705652
0.16991269
-0.024992101
0.16984373
-0.025251432
0.1698566
-0.025492193
0.16994893
-0.025723407
0.17011886
-0.025954607
0.17036503
-0.026195888
0.17068658
-0.02645796
0.17108319
-0.026752193
0.17155509
-0.027090659
0.17210301
-0.027486121
0.17272819
-0.027952104
0.17343233
-0.028502657
0.17421761
-0.029153164
0.1750867
-0.029917979
0.176043
-0.030818623
0.17709057
-0.031859144
0.1782353
-0.033104489
0.17948269
-0.03444481
0.18084455
-0.036320837
0.18231888
-0.037607072
0.18393835
-0.041778761
-0.041071183
0.24461528
0.01104577
-0.2473016
0.24180466
0.0093915689
0.23899215
0.0073907575
0.23618786
0.0054892254
0.23335513
0.0036216008
0.23051466
0.0017364083
0.22769768
-0.00014341374
0.22492374
-0.0019944588
0.22220898
-0.0038075519
0.21956956
-0.0055738931
0.21701961
-0.0072828317
0.21457043
-0.0089251063
0.21223098
-0.010493556
0.21000818
-0.011982511
0.20790707
-0.013387595
0.20593099
-0.014705777
0.20408177
-0.015935309
0.20235998
-0.017075615
0.2007651
-0.018127209
0.19929572
-0.019091617
0.1979497
-0.019971309
0.19672435
-0.02076963
0.19561651
-0.021490726
0.19462276
-0.022139489
0.19373949
-0.022721495
0.192963
-0.023242946
0.19228965
-0.023710633
0.19171589
-0.024131889
0.19123836
-0.024514569
0.19085396
-0.024867033
0.19055992
-0.025198148
0.19035382
-0.025517307
0.19023366
-0.025834455
0.19019791
-0.026160131
0.19024546
-0.026505509
0.1903757
-0.026882437
0.1905885
-0.027303456
0.19088415
-0.027781778
0.19126339
-0.028331337
0.19172729
-0.028966557
0.19227727
-0.029703149
0.1929152
-0.030555907
0.19364328
-0.031546708
0.19446506
-0.032680921
0.19538374
-0.034023163
0.19640818
-0.035469255
0.197536
-0.037448655
0.19879823
-0.038869306
0.20012617
-0.043106696
-0.042596384
0.27003793
0.013046607
-0.27203877
0.26790416
0.011525339
0.26559822
0.009696701
0.26319677
0.0078906704
0.26070834
0.0061100312
0.25814314
0.0043016057
0.25552734
0.0024723938
0.25288518
0.00064770043
0.25023683
-0.0011592082
0.2476024
-0.0029394599
0.24500139
-0.004681825
0.24245121
-0.0063749223
0.23996688
-0.0080092284
0.23756124
-0.009576874
0.23524498
-0.011071332
0.23302668
-0.012487478
0.230913
-0.013821629
0.22890886
-0.015071469
0.22701761
-0.016235962
0.22524127
-0.017315282
0.2235807
-0.018310737
0.22203576
-0.019224691
0.22060552
-0.020060488
0.21928841
-0.020822379
0.21808237
-0.021515447
0.21698497
-0.022145549
0.21599359
-0.022719252
0.21510548
-0.023243784
0.21431792
-0.023727003
0.21362825
-0.024177361
0.213034
-0.024603903
0.21253296
-0.025016268
0.21212321
-0.025424705
0.21180318
-0.025840103
0.21157169
-0.026274016
0.21142794
-0.026738681
0.21137151
-0.027247025
0.21140234
-0.027812616
0.21152069
-0.028449687
0.21172706
-0.029172919
0.21202209
-0.029998179
0.21240679
-0.030940612
0.21288219
-0.032022102
0.21345109
-0.033249829
0.21411419
-0.034686261
0.21488293
-0.036237999
0.21574229
-0.038308013
0.21675173
-0.039878743
0.21775047
-0.044105437
-0.043881987
0.29365793
0.01435344
-0.29496476
0.29220473
0.012978545
0.2905103
0.011391127
0.28864174
0.0097592338
0.28663429
0.0081174772
0.28449898
0.0064369124
0.28225432
0.0047170525
0.27992376
0.0029782605
0.27752874
0.0012358198
0.27508945
-0.00050017583
0.27262643
-0.0022188045
0.27015974
-0.0039082324
0.26770798
-0.0055574698
0.26528807
-0.0071569571
0.26291509
-0.0086983563
0.26060222
-0.010174609
0.25836066
-0.011580071
0.25619972
-0.012910529
0.25412692
-0.014163162
0.25214813
-0.01533649
0.25026772
-0.016430326
0.24848874
-0.017445704
0.24681306
-0.018384812
0.24524159
-0.019250913
0.24377442
-0.020048273
0.24241096
-0.020782088
0.24115012
-0.021458416
0.23999046
-0.022084119
0.23893027
-0.022666818
0.23796776
-0.023214847
0.23710109
-0.023737239
0.23632854
-0.02424371
0.2356485
-0.024744666
0.23505961
-0.025251212
0.23456075
-0.025775158
0.23415109
-0.026329022
0.23383006
-0.026925999
0.23359735
-0.0275799
0.23345278
-0.028305126
0.23339634
-0.02911647
0.23342793
-0.030029776
0.23354772
-0.031060397
0.23375552
-0.032229908
0.23405328
-0.033547591
0.23443941
-0.035072386
0.23492695
-0.036725535
0.23549052
-0.038871591
0.23621179
-0.040600011
0.23685305
-0.044746696
-0.044885284