/*--------------------------------*- C++ -*----------------------------------*\
  =========                 |
  \\      /  F ield         | OpenFOAM: The Open Source CFD Toolbox
   \\    /   O peration     | Website:  https://openfoam.org
    \\  /    A nd           | Version:  6
     \\/     M anipulation  |
\*---------------------------------------------------------------------------*/
FoamFile
{
    version     2.0;
    format      ascii;
    class       surfaceScalarField;
    location    "167";
    object      phi;
}
// * * * * * * * * * * * * * * * * * * * * * * * * * * * * * * * * * * * * * //

dimensions      [0 3 -1 0 0 0 0];

internalField   nonuniform List<scalar> 
18180
(
0.00031872939
-0.00016316041
-0.00015556898
0.0013092115
-0.0013669174
0.00037643528
0.0030328887
-0.003333623
0.0016099458
0.0055497756
-0.0059759642
0.0034590773
0.0089182001
-0.0092390871
0.0058706625
0.013192817
-0.01307954
0.008804923
0.018421947
-0.017459854
0.012230724
0.024644612
-0.022345817
0.016123152
0.031887379
-0.027703337
0.02046057
0.040161292
-0.033495832
0.025221919
0.04945918
-0.039682468
0.03038458
0.059753736
-0.046217243
0.035922687
0.070996748
-0.053048888
0.041805876
0.083119955
-0.060121627
0.04799842
0.096038131
-0.067376885
0.054458709
0.10965492
-0.074756049
0.06113926
0.12387085
-0.082204144
0.06798821
0.13859858
-0.089674131
0.074946402
0.15383668
-0.09714888
0.081910783
-0.10462602
0.088678941
0.16978376
0.00039749721
-0.00056065763
0.0016095953
-0.0025790155
0.0036893192
-0.0054133469
0.0066874456
-0.0089740906
0.010650655
-0.013202297
0.015617874
-0.018046758
0.021616265
-0.023458245
0.028657265
-0.029386817
0.036732953
-0.035779026
0.045813155
-0.042576033
0.055843701
-0.049713014
0.066746218
-0.05711976
0.078419677
-0.064722346
0.090743794
-0.072445744
0.10358408
-0.080217171
0.11679793
-0.087969896
0.1302408
-0.095647013
0.143773
-0.10320633
0.15725859
-0.11063448
-0.11786194
0.17049452
0.00048062358
-0.0010412812
0.0019186988
-0.0040170907
0.00435248
-0.0078471282
0.0078165655
-0.012438176
0.012337668
-0.017723399
0.017929211
-0.023638302
0.024586254
-0.030115288
0.032281217
-0.037081779
0.040960849
-0.044458658
0.050544931
-0.052160116
0.060927079
-0.060095162
0.071977817
-0.068170499
0.08354981
-0.076294339
0.095484823
-0.084380758
0.1076217
-0.092354048
0.11980427
-0.10015247
0.13188802
-0.10773076
0.14374349
-0.11506181
0.15524871
-0.1221397
-0.12891433
0.1663011
0.00056616985
-0.0016074511
0.002227943
-0.0056788639
0.0050006125
-0.010619798
0.0088940128
-0.016331576
0.013905261
-0.022734647
0.020011886
-0.029744927
0.027166493
-0.037269895
0.035293424
-0.045208709
0.044287865
-0.053453099
0.054017786
-0.061890037
0.06432873
-0.070406106
0.075051142
-0.078892911
0.086009535
-0.087252733
0.097032509
-0.095403732
0.10796247
-0.10328401
0.11866397
-0.11085396
0.12902966
-0.11809645
0.13898298
-0.12501513
0.14847492
-0.13163164
-0.13794524
0.15750582
0.00065088643
-0.0022583375
0.0025243423
-0.0075523197
0.0056036359
-0.013699091
0.0098644673
-0.020592408
0.015264615
-0.028134795
0.021736415
-0.036216727
0.029182488
-0.044715968
0.037474901
-0.053501123
0.046458011
-0.062436208
0.055954847
-0.071386872
0.065776441
-0.080227701
0.075733022
-0.088849491
0.085645726
-0.097165437
0.095357403
-0.10511541
0.10474122
-0.11266783
0.1137062
-0.11981894
0.12219937
-0.12658962
0.13020456
-0.13302032
0.137738
-0.13916507
-0.14506761
0.14486037
0.00073063602
-0.0029889735
0.0027920869
-0.0096137707
0.0061265758
-0.01703358
0.010666715
-0.025132547
0.016322654
-0.033790734
0.022975248
-0.042869321
0.030474435
-0.052215155
0.038642404
-0.061669093
0.047281194
-0.071074998
0.05618374
-0.080289418
0.065146892
-0.089190853
0.073984604
-0.097687203
0.082539487
-0.10572032
0.090691302
-0.11326722
0.098361454
-0.12033798
0.1055133
-0.12697078
0.11214879
-0.13322511
0.11830239
-0.13917393
0.12403361
-0.14489629
-0.15046333
0.12942933
0.00080073139
-0.0037897049
0.0030139168
-0.011826956
0.0065328957
-0.020552559
0.011240054
-0.029839705
0.0169927
-0.03954338
0.023618549
-0.04949517
0.030918219
-0.059514825
0.038673323
-0.069424196
0.046658777
-0.079060453
0.054657402
-0.088288042
0.062474462
-0.097007913
0.069949957
-0.1051627
0.076966964
-0.11273733
0.083455099
-0.11975536
0.089389107
-0.12627199
0.094783308
-0.13236498
0.099683296
-0.1381251
0.10415648
-0.14364712
0.10828309
-0.14902289
-0.1543336
0.11215335
0.0008560589
-0.0046457638
0.0031720613
-0.014142958
0.006787227
-0.024167725
0.011529804
-0.034582282
0.017203436
-0.045217012
0.023586551
-0.055878285
0.030439878
-0.066368152
0.037519331
-0.07650365
0.044591802
-0.086132924
0.051451006
-0.095147246
0.057930633
-0.10348754
0.063912776
-0.11114484
0.069330642
-0.11815519
0.074165689
-0.12459041
0.078440248
-0.13054655
0.082207326
-0.13613206
0.085539489
-0.14145726
0.088518545
-0.14662617
0.091227339
-0.15173169
-0.15685208
0.09374582
0.00089026253
-0.0055360263
0.0032482838
-0.01650098
0.0068576231
-0.027777064
0.011492466
-0.039217124
0.016906811
-0.050631358
0.022838897
-0.061810371
0.029023672
-0.072552927
0.035209253
-0.08268923
0.04117393
-0.092097601
0.046740397
-0.10071371
0.051784655
-0.1085318
0.056238404
-0.11559859
0.060085134
-0.12200192
0.063351239
-0.12785651
0.066094203
-0.13328951
0.068390042
-0.1384279
0.070321907
-0.14338912
0.071971217
-0.14827548
0.073411904
-0.15317237
-0.15814773
0.074707553
0.00089981839
-0.0064358447
0.003233381
-0.018834542
0.0067291648
-0.031272848
0.011111178
-0.043599137
0.016092486
-0.055612666
0.021384624
-0.067102509
0.026713886
-0.077882189
0.031839117
-0.087814461
0.036567085
-0.096825569
0.04076227
-0.1049089
0.04434947
-0.112119
0.047309343
-0.11855846
0.049668397
-0.12436098
0.051485803
-0.12967392
0.052839511
-0.13464322
0.053813802
-0.13940219
0.05448969
-0.14406501
0.054938796
-0.14872459
0.055220521
-0.1534541
0.055380953
-0.15830816
-0.00020237833
0.00020237831
1.8666635e-11
-0.00067774668
0.00047536832
1.3934651e-11
-0.0013424262
0.00066467946
8.5891805e-12
-0.0021322947
0.00078986853
1.0506358e-11
-0.0029957739
0.00086347909
1.2966023e-11
-0.0038907412
0.00089496733
1.418948e-11
-0.0047822968
0.00089155558
1.3744118e-11
-0.005640894
0.0008585972
1.2068813e-11
-0.0064408691
0.00079997499
9.9171731e-12
-0.0071592899
0.00071842084
7.0209732e-12
-0.0077750382
0.00061574825
4.4762959e-12
-0.0082680736
0.00049303543
1.7480917e-12
-0.0086188545
0.00035078092
-2.7696294e-13
-0.0088079045
0.00018904994
-2.1456908e-12
-0.0088155569
7.6524464e-06
-3.3469816e-12
-0.0086219792
-0.00019357775
-4.3314703e-12
-0.008207436
-0.00041454312
-4.8374207e-12
-0.0075518847
-0.00065555138
-5.2975408e-12
-0.0066345687
-0.00091731593
-5.5536849e-12
-0.0011862332
-0.0054483355
-5.9929647e-12
-0.00018797454
0.00039035285
-0.00062500728
0.00091240106
-0.0012287537
0.0012684259
-0.0019351953
0.0014963101
-0.0026921403
0.0016204241
-0.0034562853
0.0016591124
-0.0041910686
0.0016263389
-0.0048648604
0.001532389
-0.0054495256
0.0013846402
-0.0059192883
0.0011881836
-0.0062498167
0.00094627668
-0.0064174811
0.00066069984
-0.0063987491
0.00033204893
-0.0061697066
-3.9992603e-05
-0.0057057325
-0.00045632159
-0.004981419
-0.0009178913
-0.0039707868
-0.0014251753
-0.0026472064
-0.0019791318
-0.00098324799
-0.0025812744
-0.0032017873
0.0010323061
-0.00015892791
0.00054928077
-0.00051889163
0.0012723648
-0.0010007703
0.0017503046
-0.0015412599
0.0020367996
-0.0020873505
0.0021665147
-0.0025937359
0.0021654978
-0.0030208689
0.0020534719
-0.0033332941
0.0018448142
-0.0034983024
0.0015496484
-0.0034848546
0.0011747358
-0.0032626979
0.00072412001
-0.002801646
0.00019964793
-0.0020709452
-0.00039865184
-0.0010387608
-0.001072177
0.00032825257
-0.001823335
0.0020652273
-0.002654866
0.0042090424
-0.0035689905
0.0067980178
-0.0045681072
0.009871845
-0.0056551015
-0.0067797466
0.013449804
-0.00011756698
0.00066684776
-0.0003669986
0.0015217964
-0.00067351371
0.0020568198
-0.00097482567
0.0023381116
-0.0012168539
0.0024085429
-0.0013515939
0.0023002378
-0.0013354593
0.0020373373
-0.0011278276
0.0016371826
-0.00068984375
0.0011116645
1.6532602e-05
0.00046835941
0.0010293107
-0.00028865808
0.0023871158
-0.0011581572
0.0041297345
-0.0021412706
0.0062985961
-0.0032410386
0.0089372788
-0.0044620177
0.012092066
-0.0058096535
0.015812323
-0.0072892468
0.020150191
-0.0089059757
0.025160382
-0.010665293
-0.012492631
0.030873266
-6.6907635e-05
0.0007337554
-0.00017916646
0.0016340552
-0.00026653365
0.002144187
-0.0002676911
0.002339269
-0.00012719358
0.0022680454
0.00020616804
0.0019668761
0.00078069532
0.00146281
0.0016429517
0.00077492626
0.0028387322
-8.4115988e-05
0.0044138492
-0.0011067576
0.0064146962
-0.0022895051
0.0088886639
-0.0036321248
0.011884466
-0.0051370723
0.015452468
-0.0068090405
0.019645062
-0.0086546123
0.024517289
-0.01068188
0.03012771
-0.012899669
0.036538926
-0.015317191
0.043818332
-0.017944699
-0.020682557
0.052008258
-9.9845913e-06
0.00074373999
3.4535145e-05
0.0015895355
0.00019989059
0.0019788315
0.00054676655
0.0019923931
0.0011322485
0.0016825635
0.0020109832
0.0010881414
0.003236143
0.00023765029
0.0048603083
-0.0008492391
0.0069361259
-0.0021599336
0.0095166825
-0.0036873143
0.012655714
-0.0054285364
0.016407709
-0.0073841198
0.020827836
-0.0095571997
0.025971784
-0.011952988
0.031895659
-0.014578488
0.038656291
-0.017442512
0.046312412
-0.02055579
0.054926721
-0.0239315
0.064569713
-0.027587691
-0.031405619
0.075292775
5.0751363e-05
0.00069298863
0.000265658
0.0013746289
0.00070825493
0.0015362346
0.0014390314
0.0012616167
0.002516822
0.00060477288
0.0039995689
-0.00039460547
0.0059449179
-0.0017076987
0.0084106077
-0.0033149289
0.0114546
-0.0052039259
0.015135049
-0.007367763
0.019510031
-0.0098035192
0.024637022
-0.012511111
0.030572157
-0.015492334
0.037369333
-0.018750164
0.04507928
-0.022288434
0.053749007
-0.02611224
0.063422627
-0.030229409
0.074144737
-0.03465361
0.085969372
-0.039412327
-0.044388534
0.098952287
0.00011379638
0.00057919226
0.00050850371
0.00097992154
0.001245983
0.00079875528
0.0023867788
0.00012082084
0.0039912428
-0.0009996911
0.0061198789
-0.0025232415
0.0088333238
-0.0044211437
0.012192171
-0.0066737758
0.016256564
-0.0092683192
0.021085454
-0.012196653
0.026735558
-0.015453623
0.033260036
-0.019035589
0.0407069
-0.022939198
0.04911721
-0.027160475
0.058523176
-0.031694399
0.068946531
-0.036535595
0.080398355
-0.041681233
0.092882187
-0.047137442
0.10640553
-0.052935668
-0.058995706
0.1210127
0.00017849591
0.00040069635
0.00076003026
0.00039838719
0.0018053398
-0.00024655421
0.0033747152
-0.0014485546
0.0055289979
-0.0031539737
0.0083293229
-0.0053235665
0.011836495
-0.0079283157
0.016110065
-0.010947346
0.021207051
-0.014365305
0.027180314
-0.018169916
0.034076631
-0.02234994
0.041934494
-0.026893451
0.05078168
-0.031786385
0.060632616
-0.037011411
0.071485526
-0.042547309
0.08331942
-0.04836949
0.096091895
-0.054453707
0.10974046
-0.06078601
0.12419604
-0.067391247
-0.074274659
0.13947499
0.00024512737
0.0010199498
0.0023833414
0.0043938641
0.0071105529
0.010591909
0.014894317
0.020070123
0.026165388
0.033217391
0.041252031
0.050281267
0.060300758
0.071287767
0.083199167
0.095968938
0.10950344
0.12366383
0.13818337
0.15258765
-0.003507707
-0.0019406285
-9.4567452e-12
-0.0012859184
-0.0022217885
-1.0050956e-11
0.0011946949
-0.0024806133
-9.5898128e-12
0.0038772338
-0.0026825389
-8.7783698e-12
0.0067348946
-0.0028576608
-7.4284659e-12
0.0097503714
-0.0030154768
-7.0918161e-12
0.01290473
-0.0031543582
-6.4986753e-12
0.016179947
-0.003275217
-6.1365068e-12
0.019560321
-0.0033803743
-5.5753176e-12
0.023031634
-0.0034713128
-4.8152793e-12
0.026580599
-0.0035489648
-3.8036964e-12
0.030194791
-0.003614192
-2.4939922e-12
0.033862567
-0.003667776
-7.603592e-13
0.03757293
-0.0037103637
1.5197584e-12
0.04131543
-0.0037425
4.4562133e-12
0.045080094
-0.0037646642
8.1468491e-12
0.048857382
-0.0037772878
1.2639607e-11
0.05263815
-0.0037807674
1.7981156e-11
0.056413629
-0.0037754794
2.4112933e-11
0.06017542
-0.0037617916
3.093462e-11
0.063915492
-0.0037400721
3.8156513e-11
0.067626187
-0.0037106948
4.5406148e-11
0.071300232
-0.0036740445
5.2064803e-11
0.07493075
-0.0036305179
5.7438377e-11
0.078511274
-0.0035805245
6.0592483e-11
0.082035759
-0.0035244852
6.0604675e-11
0.085498589
-0.0034628301
5.6424528e-11
0.088894585
-0.0033959957
4.7227756e-11
0.092219006
-0.0033244211
3.2330572e-11
0.09546755
-0.0032485444
1.1650514e-11
0.09863635
-0.0031687997
-1.4312519e-11
0.10172196
-0.0030856133
-4.3963177e-11
0.10472136
-0.0029994008
-7.4650705e-11
0.10763193
-0.0029105657
-1.0229701e-10
0.11045143
-0.0028194973
-1.2169896e-10
0.113178
-0.0027265713
-1.2662296e-10
0.11581015
-0.0026321502
-1.1077488e-10
0.11834674
-0.0025365863
-6.856319e-11
0.12078696
-0.0024402285
2.7100797e-12
0.12313039
-0.0023434233
1.0175309e-10
0.12537694
-0.0022465567
2.2046237e-10
0.12752692
-0.0021499798
3.4363626e-10
0.12958131
-0.0020543826
4.4755877e-10
0.13154106
-0.0019597535
5.0227543e-10
0.13341027
-0.0018692138
4.7490073e-10
0.13518746
-0.0017771843
3.3921885e-10
0.13689706
-0.0017096058
7.9696918e-11
0.13849494
-0.0015978826
-2.6561273e-10
0.14018193
-0.0016869832
-7.2137362e-10
-0.0013312182
-9.6261605e-10
0.0028529218
-0.0037612443
0.0049500688
-0.0043189355
0.0072929282
-0.0048234728
0.0098190582
-0.0052086689
0.012507398
-0.0055460001
0.015345621
-0.0058537001
0.018316987
-0.0061257244
0.02140509
-0.0063633196
0.02459591
-0.0065711944
0.027876685
-0.0067520878
0.031235283
-0.0069075628
0.034660223
-0.0070391319
0.038140648
-0.0071482009
0.041666211
-0.0072359271
0.045226995
-0.007303284
0.048813466
-0.0073511356
0.052416446
-0.0073802673
0.056027089
-0.0073914101
0.059636875
-0.0073852657
0.063237611
-0.0073625281
0.066821438
-0.0073238988
0.070380841
-0.0072700977
0.073908666
-0.0072018698
0.077398136
-0.0071199879
0.080842865
-0.007025253
0.08423687
-0.0069184906
0.087574586
-0.0068005462
0.09085087
-0.0066722792
0.094061004
-0.0065345556
0.0972007
-0.0063882405
0.10026609
-0.0062341914
0.10325373
-0.006073251
0.10616057
-0.005906242
0.10898397
-0.0057339632
0.11172166
-0.0055571861
0.11437174
-0.0053766558
0.11693268
-0.0051930924
0.11940329
-0.0050071957
0.12178273
-0.0048196605
0.12407048
-0.0046311762
0.12626644
-0.0044425139
0.12837083
-0.0042543741
0.13038458
-0.004068134
0.1323086
-0.0038837748
0.1341469
-0.0037075063
0.13589798
-0.0035282699
0.13758584
-0.0033974699
0.13916739
-0.0031794235
0.14083822
-0.0033578203
-0.0026599831
0.015021141
-0.0053325811
0.016852241
-0.0061500358
0.018905779
-0.0068770099
0.021111824
-0.0074147145
0.023458744
-0.00789292
0.025942885
-0.0083378413
0.02855163
-0.0087344687
0.031271497
-0.0090831869
0.034091387
-0.0093910841
0.037001069
-0.00966177
0.039990423
-0.0098969169
0.043049588
-0.010098297
0.04616904
-0.010267653
0.049339523
-0.01040641
0.052552008
-0.010515769
0.055797683
-0.010596811
0.059067958
-0.010650543
0.062354472
-0.010677923
0.065649101
-0.010679894
0.068943979
-0.010657407
0.072231521
-0.01061144
0.075504437
-0.010543014
0.078755763
-0.010453196
0.081978877
-0.010343102
0.085167522
-0.010213897
0.088315818
-0.010066787
0.091418282
-0.0099030098
0.094469831
-0.0097238279
0.09746579
-0.0095305147
0.1004019
-0.0093243461
0.10327429
-0.0091065856
0.10607952
-0.0088784783
0.10881452
-0.0086412402
0.1114766
-0.008396053
0.11406348
-0.0081440599
0.11657319
-0.0078863655
0.11900413
-0.0076240391
0.12135506
-0.0073581219
0.12362505
-0.0070896488
0.12581352
-0.006819649
0.12792028
-0.0065492751
0.12994549
-0.0062795769
0.13188996
-0.0060126122
0.13375456
-0.0057483708
0.13554312
-0.0054960677
0.13725426
-0.0052394102
0.138911
-0.0050542083
0.14047257
-0.0047409902
0.14212397
-0.0050092188
-0.0039969854
0.032056557
-0.0065158721
0.033471754
-0.0075652328
0.035077258
-0.0084825133
0.036800091
-0.009137548
0.038640941
-0.0097337692
0.040606103
-0.010303003
0.042688406
-0.010816772
0.044878327
-0.011273108
0.047168291
-0.011681048
0.049551068
-0.012044547
0.052018952
-0.0123648
0.054563985
-0.012643331
0.057178158
-0.012881825
0.059853427
-0.013081679
0.062581731
-0.013244072
0.065355024
-0.013370104
0.068165326
-0.013460845
0.07100476
-0.013517357
0.073865592
-0.013540727
0.076740271
-0.013532086
0.079621464
-0.013492633
0.082502091
-0.013423641
0.085375357
-0.013326462
0.08823478
-0.013202526
0.091074216
-0.013053333
0.093887877
-0.012880448
0.096670349
-0.012685482
0.099416602
-0.012470081
0.102122
-0.01223591
0.10478229
-0.011984639
0.10739363
-0.011717924
0.10995255
-0.011437398
0.11245597
-0.011144658
0.11490117
-0.010841258
0.11728581
-0.0105287
0.11960789
-0.010208441
0.12186574
-0.0098818924
0.12405805
-0.0095504299
0.12618382
-0.0092154237
0.12824242
-0.0088782409
0.13023355
-0.0085404128
0.13215732
-0.0082033392
0.13401445
-0.0078697503
0.13580575
-0.0075396688
0.13753488
-0.0072251917
0.13920062
-0.0069051592
0.14082464
-0.0066782243
0.14236963
-0.006285978
0.14400532
-0.006644909
-0.0053581194
0.05264855
-0.007156164
0.053489135
-0.0084058175
0.054483247
-0.0094766256
0.055565199
-0.0102195
0.056749808
-0.010918378
0.058051368
-0.011604563
0.059468388
-0.012233793
0.060996003
-0.012800723
0.06263
-0.013315045
0.064365782
-0.01378033
0.066197829
-0.014196847
0.068119871
-0.014565372
0.070125143
-0.014887097
0.072206543
-0.01516308
0.074356725
-0.015394254
0.076568175
-0.015581554
0.078833301
-0.015725971
0.08114451
-0.015828566
0.083494272
-0.015890489
0.085875184
-0.015912998
0.088280021
-0.01589747
0.09070178
-0.0158454
0.093133722
-0.015758404
0.095569405
-0.015638209
0.098002715
-0.015486643
0.10042788
-0.015305617
0.10283951
-0.015097109
0.10523257
-0.014863143
0.10760243
-0.014605771
0.10994484
-0.014327049
0.11225594
-0.014029021
0.11453224
-0.013713702
0.11677065
-0.013383066
0.11896843
-0.013039031
0.12112319
-0.01268346
0.1232329
-0.012318154
0.12529587
-0.011944864
0.12731074
-0.011565299
0.12927648
-0.011181164
0.1311924
-0.010794163
0.1330582
-0.010406209
0.13487391
-0.010019054
0.13664026
-0.009636092
0.138358
-0.00925741
0.14003064
-0.0088978327
0.14165728
-0.0085317969
0.14325788
-0.0082788247
0.14479957
-0.0078276733
0.14643318
-0.0082785221
-0.0067666241
0.075221756
-0.0070851449
0.075326712
-0.0085107738
0.075551075
-0.0097009884
0.07585136
-0.010519785
0.076255603
-0.011322621
0.076780655
-0.012129615
0.077429553
-0.012882691
0.078202227
-0.013573396
0.079096985
-0.014209802
0.080110677
-0.014794023
0.081239063
-0.015325232
0.082476844
-0.015803154
0.083817837
-0.01622809
0.085255262
-0.016600505
0.086781942
-0.016920934
0.088390424
-0.017190037
0.090073091
-0.017408638
0.091822264
-0.017577738
0.093630299
-0.017698523
0.095489657
-0.017772357
0.097392974
-0.017800787
0.099333107
-0.017785533
0.10130319
-0.017728483
0.10329665
-0.017631672
0.10530727
-0.017497268
0.1073292
-0.017327543
0.10935695
-0.017124856
0.11138543
-0.016891621
0.11340994
-0.016630287
0.1154262
-0.016343311
0.11743032
-0.016033133
0.11941877
-0.01570216
0.12138846
-0.015352748
0.12333662
-0.014987191
0.12526087
-0.014607712
0.12715918
-0.014216467
0.12902987
-0.013815551
0.13087158
-0.013407012
0.13268331
-0.012992897
0.1344644
-0.012575252
0.13621457
-0.012156374
0.13793389
-0.01173838
0.13962312
-0.011325317
0.14128309
-0.010917378
0.14291719
-0.010531937
0.14452495
-0.010139554
0.14612448
-0.0098783547
0.14768807
-0.0093912646
0.14934519
-0.0099356414
-0.0082546132
0.09802529
-0.0061581476
0.097258014
-0.0077434974
0.096581719
-0.0090246941
0.095997279
-0.0099353449
0.095540821
-0.010866163
0.095223577
-0.011812371
0.095050914
-0.012710029
0.095026836
-0.013549318
0.095150875
-0.014333841
0.095419766
-0.015062914
0.095829149
-0.015734615
0.096373613
-0.016347618
0.097046674
-0.016901152
0.0978411
-0.01739493
0.098749206
-0.01782904
0.099763021
-0.018203852
0.10087441
-0.018520026
0.10207519
-0.018778515
0.10335722
-0.018980561
0.10471253
-0.019127666
0.10613333
-0.019221583
0.10761209
-0.019264295
0.10914161
-0.019258004
0.11071503
-0.01920509
0.11232586
-0.0191081
0.11396803
-0.018969709
0.11563586
-0.01879269
0.11732412
-0.018579884
0.11902801
-0.018334173
0.12074314
-0.018058438
0.12246555
-0.017755549
0.12419172
-0.017428327
0.12591851
-0.017079536
0.12764318
-0.016711864
0.12936339
-0.016327918
0.13107714
-0.015930224
0.13278283
-0.015521238
0.13447918
-0.015103363
0.13616528
-0.014679
0.13784058
-0.014250552
0.13950493
-0.013820715
0.14115853
-0.01339198
0.14280226
-0.012969048
0.14443713
-0.012552256
0.14606654
-0.012161346
0.14769055
-0.011763559
0.14932537
-0.011513179
0.15094894
-0.011014828
0.15266815
-0.011654856
-0.0098638462
0.11918906
-0.0043345037
0.11749645
-0.0060508934
0.11585693
-0.007385176
0.11435441
-0.0084328159
0.1130251
-0.0095368612
0.11186654
-0.010653807
0.11088418
-0.011727669
0.11008431
-0.012749444
0.10946633
-0.013715863
0.10902565
-0.014622237
0.10875647
-0.015465429
0.10865211
-0.01624326
0.10870499
-0.016954027
0.10890678
-0.017596729
0.10924878
-0.018171036
0.10972203
-0.018677104
0.11031751
-0.019115506
0.11102621
-0.019487218
0.11183926
-0.019793602
0.11274795
-0.020036365
0.1137439
-0.020217533
0.11481903
-0.020339416
0.11596561
-0.020404589
0.11717636
-0.020415842
0.11844442
-0.020376159
0.11976338
-0.020288672
0.12112732
-0.020156627
0.12253078
-0.019983345
0.12396879
-0.019772182
0.12543685
-0.019526502
0.12693094
-0.019249638
0.12844749
-0.018944875
0.12998338
-0.018615419
0.1315359
-0.018264388
0.13310279
-0.017894806
0.13468216
-0.017509598
0.13627253
-0.01711161
0.1378728
-0.016703624
0.13948222
-0.01628842
0.14110045
-0.015868782
0.14272755
-0.015447821
0.144364
-0.015028424
0.1460109
-0.014615948
0.14766956
-0.014210916
0.14934347
-0.013835263
0.15103337
-0.013453458
0.15275364
-0.013233449
0.15448808
-0.012749266
0.15632092
-0.013487693
-0.011645671
0.13689603
-0.0017555345
0.13437807
-0.0035329336
0.1318195
-0.0048266087
0.12946243
-0.0060757514
0.12733408
-0.0074085066
0.12541581
-0.008735537
0.12371045
-0.010022314
0.1222231
-0.011262091
0.1209522
-0.012444964
0.11989198
-0.013562018
0.11903494
-0.014608385
0.11837272
-0.015581044
0.11789634
-0.016477643
0.11759626
-0.01729665
0.11746262
-0.018037395
0.1174854
-0.01869989
0.1176546
-0.0192847
0.11796028
-0.019792902
0.11839272
-0.020226044
0.11894247
-0.020586109
0.11960039
-0.020875458
0.12035777
-0.021096799
0.12120633
-0.021253145
0.12213825
-0.021347763
0.12314623
-0.021384142
0.1242235
-0.021365938
0.12536381
-0.021296933
0.12656145
-0.021180987
0.12781127
-0.021022001
0.12910864
-0.020823872
0.13044946
-0.02059046
0.13183014
-0.02032556
0.1332476
-0.020032875
0.13469921
-0.019715999
0.13618282
-0.019378415
0.13769671
-0.01902349
0.1392396
-0.0186545
0.14081062
-0.018274638
0.14240929
-0.017887098
0.14403558
-0.017495073
0.14568988
-0.017102116
0.14737299
-0.016711536
0.1490864
-0.016329357
0.15083182
-0.015956333
0.15261297
-0.015616417
0.15443136
-0.01527185
0.15629965
-0.015101735
0.15820763
-0.01465725
0.16021728
-0.015497345
-0.013660126
0.15005215
0.00077996558
0.14676321
-0.00024399003
0.14346587
-0.0015292726
0.14041809
-0.0030279752
0.1376232
-0.0046136159
0.13507494
-0.006187276
0.13277515
-0.0077225181
0.1307239
-0.0092108453
0.12891877
-0.010639828
0.12735454
-0.011997792
0.1260234
-0.013277243
0.12491593
-0.01447358
0.12402197
-0.015583681
0.12333085
-0.016605529
0.12283159
-0.017538134
0.12251308
-0.018381376
0.12236424
-0.019135861
0.12237416
-0.019802824
0.12253219
-0.020384071
0.122828
-0.020881917
0.12325167
-0.021299137
0.12379378
-0.021638906
0.12444538
-0.021904748
0.12519811
-0.022100489
0.12604416
-0.022230194
0.12697634
-0.022298121
0.12798807
-0.022308663
0.12907339
-0.022266297
0.13022692
-0.022175539
0.13144394
-0.02204089
0.13272029
-0.021866804
0.13405238
-0.02165765
0.13543719
-0.021417686
0.13687223
-0.021151043
0.13835553
-0.020861715
0.1398856
-0.020553561
0.14146143
-0.020230325
0.14308245
-0.019895661
0.14474857
-0.019553211
0.1464601
-0.019206612
0.14821788
-0.018859895
0.15002316
-0.01851681
0.15187787
-0.018184074
0.15378422
-0.01786268
0.15574633
-0.017578522
0.15776638
-0.0172919
0.15985591
-0.017191266
0.16200916
-0.016810506
0.1642709
-0.017759077
-0.015972181
0.18890887
0.0053820638
-0.19351097
0.18509883
0.0035660442
0.1817068
0.0018627581
0.17856168
0.00011714657
0.17562613
-0.0016780608
0.17287511
-0.003436255
0.17029039
-0.0051378067
0.167863
-0.0067834503
0.16558904
-0.0083658689
0.16346636
-0.0098751127
0.1614931
-0.011303983
0.15966715
-0.01264763
0.15798587
-0.013902397
0.15644596
-0.015065621
0.1550435
-0.01613568
0.15377404
-0.017111909
0.15263263
-0.017994453
0.15161398
-0.01878418
0.15071253
-0.019482614
0.14992248
-0.020091872
0.14923795
-0.020614605
0.14865298
-0.021053934
0.14816163
-0.021413395
0.14775801
-0.021696874
0.14743636
-0.021908547
0.14719107
-0.022052825
0.14701669
-0.022134286
0.14690801
-0.022157622
0.14686006
-0.022127584
0.1468681
-0.022048932
0.14692768
-0.021926384
0.14703462
-0.021764588
0.14718502
-0.021568083
0.14737526
-0.021341285
0.14760202
-0.021088474
0.14786225
-0.020813793
0.1481532
-0.020521273
0.14847239
-0.020214855
0.14881765
-0.019898471
0.14918709
-0.019576054
0.14957916
-0.019251965
0.14999262
-0.018930267
0.1504267
-0.018618153
0.15088087
-0.018316857
0.15135577
-0.018053415
0.15185123
-0.017787359
0.15237173
-0.017711772
0.15291298
-0.01735175
0.15349794
-0.018344041
-0.016564951
0.21685776
0.0087803918
-0.22025608
0.21338387
0.0070399283
0.21017106
0.0050755673
0.20706575
0.0032224564
0.20401916
0.0013685317
0.20106224
-0.00047933793
0.19821188
-0.0022874483
0.1954726
-0.0040441631
0.19285028
-0.0057435534
0.19035177
-0.0073766008
0.18798226
-0.0089344745
0.18574515
-0.010410521
0.18364244
-0.011799684
0.18167482
-0.013098002
0.17984176
-0.014302621
0.17814164
-0.015411783
0.1765719
-0.016424715
0.17512923
-0.017341514
0.17380969
-0.018163069
0.17260881
-0.018890992
0.17152175
-0.019527545
0.17054337
-0.020075564
0.16966837
-0.02053839
0.1688913
-0.020919802
0.16820669
-0.02122394
0.16760911
-0.021455241
0.16709319
-0.021618367
0.16665371
-0.02171814
0.1662856
-0.021759479
0.16598401
-0.021747344
0.16574431
-0.021686683
0.16556211
-0.021582389
0.16543329
-0.021439263
0.165354
-0.021261995
0.16532068
-0.021055144
0.16533002
-0.020823141
0.16537905
-0.020570305
0.16546507
-0.020300871
0.16558567
-0.020019074
0.16573878
-0.01972916
0.16592263
-0.019435817
0.16613584
-0.019143471
0.16637739
-0.018859703
0.16664679
-0.018586256
0.16694388
-0.018350512
0.16726991
-0.018113387
0.16762409
-0.018065953
0.16801473
-0.017742385
0.16842378
-0.018753095
-0.017038924
0.24376667
0.011504342
-0.24649062
0.24091624
0.009890363
0.23806303
0.0079287745
0.23521607
0.0060694152
0.23233827
0.0042463311
0.22945045
0.0024084788
0.22658384
0.00057916556
0.22375773
-0.0012180489
0.22098803
-0.0029738564
0.21829069
-0.004679257
0.21567955
-0.0063233423
0.21316563
-0.0078965998
0.21075753
-0.0093915847
0.20846181
-0.010802284
0.20628311
-0.012123915
0.2042243
-0.013352971
0.20228673
-0.014487152
0.20047046
-0.015525241
0.19877439
-0.016467001
0.1971965
-0.017313099
0.19573397
-0.018065011
0.19438334
-0.01872494
0.19314068
-0.019295728
0.19200165
-0.019780773
0.19096166
-0.020183948
0.19001593
-0.020509511
0.1891596
-0.020762037
0.18838779
-0.02094633
0.18769567
-0.021067358
0.1870785
-0.021130181
0.18653172
-0.021139893
0.1860509
-0.021101572
0.18563187
-0.021020235
0.18527068
-0.020900807
0.18496364
-0.020748105
0.18470733
-0.020566832
0.18449862
-0.020361589
0.18433465
-0.020136906
0.1842129
-0.019897323
0.18413115
-0.019647406
0.1840875
-0.019392174
0.18408048
-0.01913645
0.1841089
-0.018888118
0.18417234
-0.018649696
0.1842699
-0.018448074
0.1844043
-0.018247786
0.18456914
-0.018230792
0.18478631
-0.017959555
0.18499191
-0.018958698
-0.017371643
0.26927443
0.013537292
-0.27130738
0.26710639
0.012058404
0.26476463
0.010270532
0.26232541
0.0085086377
0.25979666
0.0067750779
0.25718857
0.0050165702
0.25452726
0.0032404796
0.25183689
0.001472315
0.24913748
-0.0002744403
0.24644882
-0.0019905937
0.24379019
-0.0036647218
0.24117875
-0.0052851577
0.23862922
-0.0068420475
0.23615407
-0.0083271408
0.23376362
-0.0097334614
0.23146602
-0.011055368
0.22926745
-0.012288583
0.22717231
-0.0134301
0.2251834
-0.014478091
0.22330211
-0.015431813
0.22152862
-0.016291523
0.21986207
-0.017058384
0.2183007
-0.017734361
0.21684206
-0.018322132
0.2154831
-0.018824991
0.21422034
-0.019246749
0.21304995
-0.019591648
0.21196789
-0.019864266
0.21096997
-0.020069437
0.21005195
-0.020212169
0.20920963
-0.020297574
0.20843887
-0.020330809
0.20773565
-0.020317018
0.20709615
-0.0202613
0.20651672
-0.020168677
0.20599397
-0.020044085
0.20552477
-0.019892385
0.20510625
-0.019718385
0.20473584
-0.01952692
0.20441132
-0.019322879
0.20413075
-0.019111604
0.20389263
-0.018898338
0.20369571
-0.018691195
0.20353968
-0.018493663
0.20342306
-0.018331456
0.20334977
-0.018174495
0.20330862
-0.018189647
0.20333285
-0.017983778
0.20331723
-0.018943085
-0.017540927
0.2929852
0.014868431
-0.29431634
0.29150596
0.013537644
0.28978347
0.011993022
0.28788484
0.010407269
0.28584493
0.0088149854
0.28367456
0.0071869389
0.28139214
0.0055228979
0.27902092
0.00384354
0.27658219
0.0021642889
0.27409612
0.00049547762
0.2715829
-0.001151509
0.26906227
-0.0027645279
0.26655255
-0.0043323243
0.26407033
-0.0058449157
0.26163034
-0.0072934739
0.25924535
-0.0086703828
0.25692613
-0.0099693603
0.25468149
-0.011185459
0.25251841
-0.012315012
0.25044217
-0.013355571
0.24845648
-0.01430584
0.24656369
-0.015165588
0.24476488
-0.015935554
0.2430601
-0.016617355
0.24144849
-0.017213378
0.23992842
-0.017726681
0.23849767
-0.018160894
0.23715352
-0.018520114
0.23589289
-0.018808814
0.23471247
-0.019031749
0.23360878
-0.019193877
0.23257825
-0.019300284
0.23161736
-0.019356122
0.23072261
-0.019366556
0.22989067
-0.019336734
0.22911835
-0.019271762
0.22840267
-0.019176711
0.22774092
-0.019056632
0.22713063
-0.018916633
0.22656966
-0.018761911
0.22605617
-0.018598114
0.22558875
-0.018430916
0.22516616
-0.018268601
0.22478823
-0.01811574
0.22445315
-0.017996373
0.22416566
-0.017887002
0.22391092
-0.017934911
0.22373049
-0.017803349
0.22348553
-0.018698122
-0.017529729
0.31506879