/*--------------------------------*- C++ -*----------------------------------*\
| =========                 |                                                 |
| \\      /  F ield         | OpenFOAM: The Open Source CFD Toolbox           |
|  \\    /   O peration     | Version:  4.1                                   |
|   \\  /    A nd           | Web:      www.OpenFOAM.org                      |
|    \\/     M anipulation  |                                                 |
\*---------------------------------------------------------------------------*/
FoamFile
{
    version     2.0;
    format      ascii;
    class       volScalarField;
    location    "1";
    object      p;
}
// * * * * * * * * * * * * * * * * * * * * * * * * * * * * * * * * * * * * * //

dimensions      [0 2 -2 0 0 0 0];

internalField   nonuniform List<scalar> 
1000
(
1.5223951
1.5063066
1.4909253
1.4755837
1.460239
1.444919
1.4296129
1.4143133
1.3990187
1.3837269
1.3684363
1.3531462
1.3378563
1.3225665
1.3072768
1.2919871
1.2766973
1.2614075
1.2461178
1.230828
1.2155382
1.2002484
1.1849586
1.1696688
1.1543791
1.1390893
1.1237995
1.1085097
1.0932199
1.0779301
1.0626403
1.0473506
1.0320608
1.016771
1.0014812
0.98619142
0.97090163
0.95561185
0.94032207
0.92503228
0.9097425
0.89445271
0.87916293
0.86387314
0.84858336
0.83329357
0.81800379
0.80271401
0.78742422
0.77213444
0.75684465
0.74155487
0.72626509
0.7109753
0.69568552
0.68039573
0.66510595
0.64981617
0.63452638
0.6192366
0.60394681
0.58865703
0.57336725
0.55807746
0.54278768
0.52749789
0.51220811
0.49691833
0.48162854
0.46633876
0.45104897
0.43575919
0.42046941
0.40517962
0.38988984
0.37460005
0.35931027
0.34402049
0.3287307
0.31344092
0.29815113
0.28286135
0.26757157
0.25228178
0.236992
0.22170221
0.20641243
0.19112264
0.17583286
0.16054308
0.14525329
0.1299635
0.11467372
0.099383934
0.084094148
0.068804368
0.053514613
0.038224805
0.022934749
0.0076448236
1.5221079
1.5059756
1.4907727
1.4755219
1.4602009
1.4449009
1.4296064
1.4143107
1.3990176
1.3837266
1.3684362
1.3531462
1.3378563
1.3225666
1.3072768
1.2919871
1.2766973
1.2614075
1.2461178
1.230828
1.2155382
1.2002484
1.1849586
1.1696688
1.1543791
1.1390893
1.1237995
1.1085097
1.0932199
1.0779301
1.0626403
1.0473506
1.0320608
1.016771
1.0014812
0.98619142
0.97090163
0.95561185
0.94032207
0.92503228
0.9097425
0.89445271
0.87916293
0.86387314
0.84858336
0.83329357
0.81800379
0.80271401
0.78742422
0.77213444
0.75684465
0.74155487
0.72626509
0.7109753
0.69568552
0.68039573
0.66510595
0.64981617
0.63452638
0.6192366
0.60394681
0.58865703
0.57336725
0.55807746
0.54278768
0.52749789
0.51220811
0.49691833
0.48162854
0.46633876
0.45104897
0.43575919
0.42046941
0.40517962
0.38988984
0.37460005
0.35931027
0.34402049
0.3287307
0.31344092
0.29815113
0.28286135
0.26757157
0.25228178
0.236992
0.22170221
0.20641243
0.19112264
0.17583286
0.16054308
0.14525329
0.1299635
0.11467372
0.099383932
0.084094144
0.068804356
0.053514605
0.038224835
0.022934794
0.0076448542
1.5218902
1.5057238
1.4906628
1.47547
1.4601698
1.444884
1.4295976
1.4143062
1.3990152
1.3837255
1.3684357
1.353146
1.3378562
1.3225665
1.3072768
1.2919871
1.2766973
1.2614075
1.2461178
1.230828
1.2155382
1.2002484
1.1849586
1.1696688
1.1543791
1.1390893
1.1237995
1.1085097
1.0932199
1.0779301
1.0626403
1.0473506
1.0320608
1.016771
1.0014812
0.98619142
0.97090163
0.95561185
0.94032207
0.92503228
0.9097425
0.89445271
0.87916293
0.86387314
0.84858336
0.83329357
0.81800379
0.80271401
0.78742422
0.77213444
0.75684465
0.74155487
0.72626509
0.7109753
0.69568552
0.68039573
0.66510595
0.64981617
0.63452638
0.6192366
0.60394681
0.58865703
0.57336725
0.55807746
0.54278768
0.52749789
0.51220811
0.49691833
0.48162854
0.46633876
0.45104897
0.43575919
0.42046941
0.40517962
0.38988984
0.37460005
0.35931027
0.34402049
0.3287307
0.31344092
0.29815113
0.28286135
0.26757157
0.25228178
0.236992
0.22170221
0.20641243
0.19112264
0.17583286
0.16054308
0.14525329
0.1299635
0.11467372
0.099383932
0.084094143
0.068804353
0.053514607
0.038224872
0.022934799
0.0076448384
1.5217709
1.5055702
1.4905798
1.4754265
1.4601435
1.4448685
1.4295887
1.4143007
1.3990125
1.3837241
1.3684351
1.3531457
1.3378561
1.3225665
1.3072768
1.2919871
1.2766973
1.2614076
1.2461178
1.230828
1.2155382
1.2002484
1.1849586
1.1696688
1.1543791
1.1390893
1.1237995
1.1085097
1.0932199
1.0779301
1.0626403
1.0473506
1.0320608
1.016771
1.0014812
0.98619142
0.97090163
0.95561185
0.94032207
0.92503228
0.9097425
0.89445271
0.87916293
0.86387314
0.84858336
0.83329357
0.81800379
0.80271401
0.78742422
0.77213444
0.75684465
0.74155487
0.72626509
0.7109753
0.69568552
0.68039573
0.66510595
0.64981617
0.63452638
0.6192366
0.60394681
0.58865703
0.57336725
0.55807746
0.54278768
0.52749789
0.51220811
0.49691833
0.48162854
0.46633876
0.45104897
0.43575919
0.42046941
0.40517962
0.38988984
0.37460005
0.35931027
0.34402049
0.3287307
0.31344092
0.29815113
0.28286135
0.26757157
0.25228178
0.236992
0.22170221
0.20641243
0.19112264
0.17583286
0.16054308
0.14525329
0.1299635
0.11467372
0.099383932
0.084094144
0.068804353
0.05351461
0.03822489
0.022934804
0.0076448336
1.5217218
1.5055022
1.4905374
1.4754024
1.4601287
1.4448596
1.4295836
1.4142979
1.3990109
1.3837233
1.3684347
1.3531455
1.337856
1.3225664
1.3072768
1.2919871
1.2766973
1.2614076
1.2461178
1.230828
1.2155382
1.2002484
1.1849586
1.1696688
1.1543791
1.1390893
1.1237995
1.1085097
1.0932199
1.0779301
1.0626403
1.0473506
1.0320608
1.016771
1.0014812
0.98619142
0.97090163
0.95561185
0.94032207
0.92503228
0.9097425
0.89445271
0.87916293
0.86387314
0.84858336
0.83329357
0.81800379
0.80271401
0.78742422
0.77213444
0.75684465
0.74155487
0.72626509
0.7109753
0.69568552
0.68039573
0.66510595
0.64981617
0.63452638
0.6192366
0.60394681
0.58865703
0.57336725
0.55807746
0.54278768
0.52749789
0.51220811
0.49691833
0.48162854
0.46633876
0.45104897
0.43575919
0.42046941
0.40517962
0.38988984
0.37460005
0.35931027
0.34402049
0.3287307
0.31344092
0.29815113
0.28286135
0.26757157
0.25228178
0.236992
0.22170221
0.20641243
0.19112264
0.17583286
0.16054308
0.14525329
0.1299635
0.11467372
0.099383932
0.084094145
0.068804354
0.05351461
0.038224896
0.022934808
0.0076448325
1.521722
1.5055026
1.4905377
1.4754026
1.4601287
1.4448596
1.4295836
1.4142979
1.3990109
1.3837233
1.3684347
1.3531455
1.337856
1.3225664
1.3072768
1.2919871
1.2766973
1.2614076
1.2461178
1.230828
1.2155382
1.2002484
1.1849586
1.1696688
1.1543791
1.1390893
1.1237995
1.1085097
1.0932199
1.0779301
1.0626403
1.0473506
1.0320608
1.016771
1.0014812
0.98619142
0.97090163
0.95561185
0.94032207
0.92503228
0.9097425
0.89445271
0.87916293
0.86387314
0.84858336
0.83329357
0.81800379
0.80271401
0.78742422
0.77213444
0.75684465
0.74155487
0.72626509
0.7109753
0.69568552
0.68039573
0.66510595
0.64981617
0.63452638
0.6192366
0.60394681
0.58865703
0.57336725
0.55807746
0.54278768
0.52749789
0.51220811
0.49691833
0.48162854
0.46633876
0.45104897
0.43575919
0.42046941
0.40517962
0.38988984
0.37460005
0.35931027
0.34402049
0.3287307
0.31344092
0.29815113
0.28286135
0.26757157
0.25228178
0.236992
0.22170221
0.20641243
0.19112265
0.17583286
0.16054308
0.14525329
0.1299635
0.11467372
0.099383932
0.084094144
0.068804353
0.05351461
0.038224896
0.022934808
0.0076448325
1.5217713
1.5055708
1.4905804
1.4754267
1.4601435
1.4448685
1.4295886
1.4143007
1.3990125
1.3837241
1.3684351
1.3531457
1.3378561
1.3225665
1.3072768
1.2919871
1.2766973
1.2614076
1.2461178
1.230828
1.2155382
1.2002484
1.1849586
1.1696688
1.1543791
1.1390893
1.1237995
1.1085097
1.0932199
1.0779301
1.0626403
1.0473506
1.0320608
1.016771
1.0014812
0.98619142
0.97090163
0.95561185
0.94032207
0.92503228
0.9097425
0.89445271
0.87916293
0.86387314
0.84858336
0.83329357
0.81800379
0.80271401
0.78742422
0.77213444
0.75684465
0.74155487
0.72626509
0.7109753
0.69568552
0.68039573
0.66510595
0.64981617
0.63452638
0.6192366
0.60394681
0.58865703
0.57336725
0.55807746
0.54278768
0.52749789
0.51220811
0.49691833
0.48162854
0.46633876
0.45104897
0.43575919
0.42046941
0.40517962
0.38988984
0.37460005
0.35931027
0.34402049
0.3287307
0.31344092
0.29815113
0.28286135
0.26757157
0.25228178
0.236992
0.22170221
0.20641243
0.19112265
0.17583286
0.16054308
0.14525329
0.1299635
0.11467372
0.099383931
0.084094143
0.068804353
0.053514609
0.03822489
0.022934804
0.0076448335
1.5218899
1.5057238
1.4906624
1.4754695
1.4601692
1.4448836
1.4295973
1.414306
1.3990152
1.3837254
1.3684357
1.353146
1.3378563
1.3225666
1.3072768
1.2919871
1.2766973
1.2614076
1.2461178
1.230828
1.2155382
1.2002484
1.1849586
1.1696688
1.1543791
1.1390893
1.1237995
1.1085097
1.0932199
1.0779301
1.0626403
1.0473506
1.0320608
1.016771
1.0014812
0.98619142
0.97090163
0.95561185
0.94032207
0.92503228
0.9097425
0.89445271
0.87916293
0.86387314
0.84858336
0.83329357
0.81800379
0.80271401
0.78742422
0.77213444
0.75684465
0.74155487
0.72626509
0.7109753
0.69568552
0.68039573
0.66510595
0.64981617
0.63452638
0.6192366
0.60394681
0.58865703
0.57336725
0.55807746
0.54278768
0.52749789
0.51220811
0.49691833
0.48162854
0.46633876
0.45104897
0.43575919
0.42046941
0.40517962
0.38988984
0.37460005
0.35931027
0.34402049
0.3287307
0.31344092
0.29815113
0.28286135
0.26757157
0.25228178
0.236992
0.22170221
0.20641243
0.19112265
0.17583286
0.16054308
0.14525329
0.1299635
0.11467372
0.09938393
0.084094142
0.068804352
0.053514607
0.038224872
0.022934799
0.0076448384
1.5221076
1.5059743
1.4907713
1.4755207
1.4602
1.4449002
1.4296059
1.4143104
1.3990175
1.3837265
1.3684362
1.3531462
1.3378564
1.3225666
1.3072768
1.2919871
1.2766973
1.2614076
1.2461178
1.230828
1.2155382
1.2002484
1.1849586
1.1696688
1.1543791
1.1390893
1.1237995
1.1085097
1.0932199
1.0779301
1.0626403
1.0473506
1.0320608
1.016771
1.0014812
0.98619142
0.97090163
0.95561185
0.94032207
0.92503228
0.9097425
0.89445271
0.87916293
0.86387314
0.84858336
0.83329357
0.81800379
0.80271401
0.78742422
0.77213444
0.75684465
0.74155487
0.72626509
0.7109753
0.69568552
0.68039573
0.66510595
0.64981617
0.63452638
0.6192366
0.60394681
0.58865703
0.57336725
0.55807746
0.54278768
0.52749789
0.51220811
0.49691833
0.48162854
0.46633876
0.45104897
0.43575919
0.42046941
0.40517962
0.38988984
0.37460005
0.35931027
0.34402049
0.3287307
0.31344092
0.29815113
0.28286135
0.26757157
0.25228178
0.236992
0.22170221
0.20641243
0.19112265
0.17583286
0.16054308
0.14525329
0.1299635
0.11467372
0.09938393
0.084094142
0.068804355
0.053514604
0.038224835
0.022934794
0.0076448543
1.522395
1.5063054
1.490924
1.4755826
1.4602382
1.4449185
1.4296125
1.4143131
1.3990186
1.3837268
1.3684362
1.3531461
1.3378563
1.3225665
1.3072768
1.2919871
1.2766973
1.2614075
1.2461178
1.230828
1.2155382
1.2002484
1.1849586
1.1696688
1.1543791
1.1390893
1.1237995
1.1085097
1.0932199
1.0779301
1.0626403
1.0473506
1.0320608
1.016771
1.0014812
0.98619142
0.97090163
0.95561185
0.94032207
0.92503228
0.9097425
0.89445271
0.87916293
0.86387314
0.84858336
0.83329357
0.81800379
0.80271401
0.78742422
0.77213444
0.75684465
0.74155487
0.72626509
0.7109753
0.69568552
0.68039573
0.66510595
0.64981617
0.63452638
0.6192366
0.60394681
0.58865703
0.57336725
0.55807746
0.54278768
0.52749789
0.51220811
0.49691833
0.48162854
0.46633876
0.45104897
0.43575919
0.42046941
0.40517962
0.38988984
0.37460005
0.35931027
0.34402049
0.3287307
0.31344092
0.29815113
0.28286135
0.26757157
0.25228178
0.236992
0.22170221
0.20641243
0.19112265
0.17583286
0.16054308
0.14525329
0.1299635
0.11467372
0.099383933
0.084094147
0.068804367
0.053514613
0.038224804
0.022934749
0.0076448238
)
;

boundaryField
{
    top
    {
        type            zeroGradient;
    }
    inlet
    {
        type            fixedValue;
        value           uniform 1.53103;
    }
    outlet
    {
        type            fixedValue;
        value           uniform 0;
    }
    bottom
    {
        type            zeroGradient;
    }
    back
    {
        type            empty;
    }
    front
    {
        type            empty;
    }
}


// ************************************************************************* //
