/*--------------------------------*- C++ -*----------------------------------*\
| =========                 |                                                 |
| \\      /  F ield         | OpenFOAM: The Open Source CFD Toolbox           |
|  \\    /   O peration     | Version:  4.1                                   |
|   \\  /    A nd           | Web:      www.OpenFOAM.org                      |
|    \\/     M anipulation  |                                                 |
\*---------------------------------------------------------------------------*/
FoamFile
{
    version     2.0;
    format      ascii;
    class       surfaceScalarField;
    location    "1";
    object      phi;
}
// * * * * * * * * * * * * * * * * * * * * * * * * * * * * * * * * * * * * * //

dimensions      [0 3 -1 0 0 0 0];

internalField   nonuniform List<scalar> 
1890
(
0.00074715336
3.0692295e-06
0.00074483222
2.321293e-06
0.00074521602
-3.8400198e-07
0.00074588986
-6.7424424e-07
0.00074603207
-1.4253956e-07
0.0007459707
6.1226363e-08
0.00074587305
9.7672218e-08
0.00074578319
8.9982395e-08
0.0007457176
6.5739586e-08
0.00074567757
4.0198183e-08
0.00074565461
2.3110749e-08
0.00074564164
1.3094683e-08
0.00074563444
7.3039235e-09
0.00074563051
4.008288e-09
0.00074562838
2.1798132e-09
0.00074562725
1.1763385e-09
0.00074562664
6.2987229e-10
0.00074562632
3.3512283e-10
0.00074562616
1.7692155e-10
0.00074562607
9.3120325e-11
0.00074562603
4.8576754e-11
0.000745626
2.5513818e-11
0.00074562599
1.3189767e-11
0.00074562598
7.0855315e-12
0.00074562598
3.7108135e-12
0.00074562598
2.0749235e-12
0.00074562598
1.1477142e-12
0.00074562598
7.6879275e-13
0.00074562597
4.819821e-13
0.00074562597
4.8367729e-13
0.00074562597
3.2118818e-13
0.00074562597
3.6788385e-13
0.00074562597
2.590854e-13
0.00074562597
3.3085142e-13
0.00074562597
2.0648569e-13
0.00074562597
2.5502394e-13
0.00074562597
1.5851784e-13
0.00074562597
2.2929932e-13
0.00074562597
1.0703286e-13
0.00074562597
1.6139664e-13
0.00074562597
6.8782116e-14
0.00074562597
1.4656546e-13
0.00074562597
3.7633939e-14
0.00074562597
9.6990201e-14
0.00074562597
1.5922764e-14
0.00074562597
9.6273293e-14
0.00074562597
-3.9185474e-15
0.00074562597
6.3322894e-14
0.00074562597
-1.3359233e-14
0.00074562597
6.964466e-14
0.00074562597
-2.3271238e-14
0.00074562597
4.4695024e-14
0.00074562597
-2.7947322e-14
0.00074562597
5.6528776e-14
0.00074562597
-3.3744593e-14
0.00074562597
3.6444737e-14
0.00074562597
-3.5315831e-14
0.00074562597
5.0718214e-14
0.00074562597
-3.8687242e-14
0.00074562597
3.3081586e-14
0.00074562597
-3.8394916e-14
0.00074562597
4.8465393e-14
0.00074562597
-4.039468e-14
0.00074562597
3.244709e-14
0.00074562597
-3.886231e-14
0.00074562597
4.8733659e-14
0.00074562597
-3.9675627e-14
0.00074562597
3.4837927e-14
0.00074562597
-3.6671687e-14
0.00074562597
5.2847666e-14
0.00074562597
-3.4665531e-14
0.00074562597
4.0433274e-14
0.00074562597
-2.8847503e-14
0.00074562597
6.1929659e-14
0.00074562597
-2.4332327e-14
0.00074562597
5.2712297e-14
0.00074562597
-1.2803805e-14
0.00074562597
8.7003429e-14
0.00074562597
1.3930544e-14
0.00074562597
1.0346673e-13
0.00074562597
6.4915568e-14
0.00074562597
1.6219775e-13
0.00074562597
9.2974451e-14
0.00074562597
1.6444321e-13
0.00074562597
1.2061903e-13
0.00074562597
2.2934466e-13
0.00074562597
8.2161819e-14
0.00074562597
-2.1470945e-13
0.00074562597
-1.2129227e-12
0.00074562597
-3.282992e-12
0.00074562598
-7.9627791e-12
0.000745626
-1.7718721e-11
0.00074562604
-4.1550633e-11
0.00074562614
-9.5292041e-11
0.00074562633
-1.9746079e-10
0.00074562687
-5.2973899e-10
0.00074562864
-1.7693441e-09
0.00074563133
-2.6957657e-09
0.00074563024
1.0897763e-09
4.4436315e-09
0.0012713521
2.2866968e-06
0.00127276
9.1340488e-07
0.0012741191
-1.7433897e-06
0.0012750826
-1.6381507e-06
0.0012756439
-7.042241e-07
0.0012758964
-1.9136921e-07
0.0012759909
3.1624345e-09
0.0012760155
6.5562833e-08
0.0012760134
6.7958622e-08
0.0012760044
4.944697e-08
0.0012759958
3.1862626e-08
0.0012759895
1.9489833e-08
0.0012759854
1.1537232e-08
0.0012759828
6.6485889e-09
0.0012759813
3.7679531e-09
0.0012759804
2.1038626e-09
0.0012759799
1.162451e-09
0.0012759796
6.3482614e-10
0.0012759795
3.4348174e-10
0.0012759794
1.840552e-10
0.0012759793
9.7897719e-11
0.0012759793
5.1474305e-11
0.0012759793
2.69514e-11
0.0012759793
1.3822408e-11
0.0012759793
7.1413038e-12
0.0012759793
3.5508355e-12
0.0012759793
1.8525072e-12
0.0012759793
8.943213e-13
0.0012759793
6.0566908e-13
0.0012759793
3.698157e-13
0.0012759793
3.6464812e-13
0.0012759793
3.0816843e-13
0.0012759793
3.4183185e-13
0.0012759793
3.4460004e-13
0.0012759793
3.1217027e-13
0.0012759793
2.9958594e-13
0.0012759793
2.8214131e-13
0.0012759793
2.7857535e-13
0.0012759793
2.2569939e-13
0.0012759793
2.0076569e-13
0.0012759793
1.7073231e-13
0.0012759793
1.683035e-13
0.0012759793
1.2024949e-13
0.0012759793
1.0316297e-13
0.0012759793
8.0328563e-14
0.0012759793
9.1936883e-14
0.0012759793
4.8130797e-14
0.0012759793
4.437766e-14
0.0012759793
2.9415689e-14
0.0012759793
5.1333158e-14
0.0012759793
1.3586763e-14
0.0012759793
1.6309056e-14
0.0012759793
5.3739807e-15
0.0012759793
3.252731e-14
0.0012759793
-2.2656616e-15
0.0012759793
5.0473869e-15
0.0012759793
-4.5576575e-15
0.0012759793
2.4907841e-14
0.0012759793
-8.4207093e-15
0.0012759793
9.3525288e-16
0.0012759793
-8.1515086e-15
0.0012759793
2.2358684e-14
0.0012759793
-1.011007e-14
0.0012759793
-2.3275315e-17
0.0012759793
-8.3895745e-15
0.0012759793
2.2746998e-14
0.0012759793
-8.8099922e-15
0.0012759793
2.0901377e-15
0.0012759793
-4.6423902e-15
0.0012759793
2.7317822e-14
0.0012759793
-2.0780187e-15
0.0012759793
9.1645095e-15
0.0012759793
4.4768269e-15
0.0012759793
3.5901307e-14
0.0012759793
8.3797495e-15
0.0012759793
1.7193069e-14
0.0012759793
1.6518053e-14
0.0012759793
5.0741202e-14
0.0012759793
3.6802623e-14
0.0012759793
5.5631155e-14
0.0012759793
6.3891621e-14
0.0012759793
7.4408689e-14
0.0012759793
2.4344824e-14
0.0012759793
-6.8926867e-14
0.0012759793
-1.4481987e-13
0.0012759793
-4.1118755e-13
0.0012759793
-8.538698e-13
0.0012759793
-2.3131887e-12
0.0012759793
-5.047481e-12
0.0012759793
-1.1353673e-11
0.0012759793
-2.3551531e-11
0.0012759793
-4.8744869e-11
0.0012759794
-1.0170588e-10
0.0012759795
-2.1446637e-10
0.0012759798
-4.2449896e-10
0.0012759801
-9.1446206e-10
0.0012759807
-2.343981e-09
0.0012759814
-3.423634e-09
0.0012759805
2.0087256e-09
6.9196779e-09
0.0014279105
1.1244507e-06
0.0014289423
-1.1811653e-07
0.0014289427
-1.74391e-06
0.0014288812
-1.5769929e-06
0.0014289873
-8.1057498e-07
0.001429109
-3.1313925e-07
0.0014291942
-8.2033339e-08
0.0014292519
8.02967e-09
0.0014292842
3.5746259e-08
0.0014293004
3.3422797e-08
0.0014293081
2.4353402e-08
0.0014293116
1.6092107e-08
0.0014293132
1.0039157e-08
0.0014293139
6.0380837e-09
0.0014293142
3.5329821e-09
0.0014293144
2.0275129e-09
0.0014293144
1.1439234e-09
0.0014293144
6.3694542e-10
0.0014293144
3.4984648e-10
0.0014293144
1.9015888e-10
0.0014293144
1.0207882e-10
0.0014293144
5.4304486e-11
0.0014293144
2.8411263e-11
0.0014293144
1.4722426e-11
0.0014293144
7.5341399e-12
0.0014293144
3.7120362e-12
0.0014293144
1.8624421e-12
0.0014293144
9.2960999e-13
0.0014293144
5.2334646e-13
0.0014293144
3.238586e-13
0.0014293144
2.9673324e-13
0.0014293144
2.4825785e-13
0.0014293144
3.1739745e-13
0.0014293144
2.5002701e-13
0.0014293144
3.3827374e-13
0.0014293144
2.1100187e-13
0.0014293144
3.2081376e-13
0.0014293144
1.8691328e-13
0.0014293144
2.7693804e-13
0.0014293144
1.2309564e-13
0.0014293144
2.3204889e-13
0.0014293144
8.2564643e-14
0.0014293144
1.8741803e-13
0.0014293144
2.7758567e-14
0.0014293144
1.5109761e-13
0.0014293144
3.2227931e-15
0.0014293144
1.2177329e-13
0.0014293144
-3.1328856e-14
0.0014293144
1.0418667e-13
0.0014293144
-3.7651651e-14
0.0014293144
8.9914779e-14
0.0014293144
-5.8572902e-14
0.0014293144
8.2681104e-14
0.0014293144
-5.5649406e-14
0.0014293144
7.6327705e-14
0.0014293144
-6.9496402e-14
0.0014293144
7.4380579e-14
0.0014293144
-6.2229692e-14
0.0014293144
7.1589797e-14
0.0014293144
-7.3042318e-14
0.0014293144
7.1843401e-14
0.0014293144
-6.4018611e-14
0.0014293144
7.0519354e-14
0.0014293144
-7.342591e-14
0.0014293144
7.1690891e-14
0.0014293144
-6.3883217e-14
0.0014293144
7.1161202e-14
0.0014293144
-7.1909362e-14
0.0014293144
7.3809452e-14
0.0014293144
-6.0607438e-14
0.0014293144
7.5489859e-14
0.0014293144
-6.5810725e-14
0.0014293144
7.9963024e-14
0.0014293144
-5.27329e-14
0.0014293144
7.917809e-14
0.0014293144
-5.8926842e-14
0.0014293144
7.3293558e-14
0.0014293144
-4.7150066e-14
0.0014293144
6.6268924e-14
0.0014293144
-5.6768151e-14
0.0014293144
4.3292803e-14
0.0014293144
-1.0786894e-13
0.0014293144
-9.6260151e-14
0.0014293144
-3.0262837e-13
0.0014293144
-5.1640631e-13
0.0014293144
-8.6691187e-13
0.0014293144
-1.7745994e-12
0.0014293144
-3.3805594e-12
0.0014293144
-7.1823139e-12
0.0014293144
-1.4397882e-11
0.0014293144
-2.9106459e-11
0.0014293144
-5.7323213e-11
0.0014293145
-1.1365119e-10
0.0014293145
-2.2432382e-10
0.0014293145
-4.2612082e-10
0.0014293144
-8.1969541e-10
0.0014293137
-1.6955626e-09
0.0014293125
-2.2067902e-09
0.0014293132
1.2856312e-09
4.7522229e-09
0.0014683805
4.4071366e-07
0.0014684874
-2.2453986e-07
0.0014676896
-9.4616454e-07
0.0014669776
-8.6538389e-07
0.0014666556
-4.8876336e-07
0.0014665576
-2.1533094e-07
0.0014665495
-7.3815467e-08
0.0014665691
-1.1509292e-08
0.0014665945
1.056078e-08
0.0014666137
1.4318398e-08
0.0014666264
1.1920321e-08
0.0014666342
8.3873735e-09
0.0014666389
5.4546656e-09
0.0014666417
3.3757239e-09
0.0014666432
2.0199918e-09
0.0014666441
1.1757464e-09
0.0014666446
6.7202511e-10
0.0014666449
3.7609079e-10
0.0014666451
2.0791617e-10
0.0014666451
1.1267359e-10
0.0014666452
6.0628546e-11
0.0014666452
3.1612695e-11
0.0014666452
1.6600374e-11
0.0014666452
8.1675899e-12
0.0014666452
4.2051164e-12
0.0014666452
1.8085634e-12
0.0014666452
1.054237e-12
0.0014666452
3.1353036e-13
0.0014666452
3.3234732e-13
0.0014666452
6.2664562e-14
0.0014666452
2.2946533e-13
0.0014666452
9.4903057e-14
0.0014666452
2.2702684e-13
0.0014666452
1.3408707e-13
0.0014666452
2.3538615e-13
0.0014666452
1.2789359e-13
0.0014666452
2.1969863e-13
0.0014666452
9.8063586e-14
0.0014666452
2.2166448e-13
0.0014666452
4.1926288e-14
0.0014666452
1.9032366e-13
0.0014666452
1.0792612e-14
0.0014666452
1.7266737e-13
0.0014666452
-2.4999454e-14
0.0014666452
1.358569e-13
0.0014666452
-4.4421663e-14
0.0014666452
1.2650476e-13
0.0014666452
-6.3654899e-14
0.0014666452
1.0376493e-13
0.0014666452
-7.0773954e-14
0.0014666452
1.0515834e-13
0.0014666452
-8.0894793e-14
0.0014666452
8.9852312e-14
0.0014666452
-8.1674129e-14
0.0014666452
9.6664093e-14
0.0014666452
-8.7230182e-14
0.0014666452
8.522619e-14
0.0014666452
-8.5038119e-14
0.0014666452
9.4358831e-14
0.0014666452
-8.8726117e-14
0.0014666452
8.4408689e-14
0.0014666452
-8.5428491e-14
0.0014666452
9.4241394e-14
0.0014666452
-8.8691779e-14
0.0014666452
8.4507769e-14
0.0014666452
-8.5187117e-14
0.0014666452
9.4353101e-14
0.0014666452
-8.8174165e-14
0.0014666452
8.5075489e-14
0.0014666452
-8.3571064e-14
0.0014666452
9.6073911e-14
0.0014666452
-8.521676e-14
0.0014666452
8.8008599e-14
0.0014666452
-8.0722471e-14
0.0014666452
9.6901935e-14
0.0014666452
-8.7333684e-14
0.0014666452
7.9424914e-14
0.0014666452
-9.6539032e-14
0.0014666452
5.8501972e-14
0.0014666452
-1.2498518e-13
0.0014666452
-2.2452982e-14
0.0014666452
-2.2119857e-13
0.0014666452
-1.6928545e-13
0.0014666452
-4.7794843e-13
0.0014666452
-5.2720231e-13
0.0014666452
-1.0634451e-12
0.0014666452
-1.3571089e-12
0.0014666452
-2.912947e-12
0.0014666452
-4.8925259e-12
0.0014666452
-1.0213552e-11
0.0014666452
-1.902163e-11
0.0014666452
-3.7488264e-11
0.0014666452
-7.105996e-11
0.0014666451
-1.3605946e-10
0.0014666449
-2.4873592e-10
0.0014666445
-4.4930569e-10
0.0014666437
-8.2324425e-10
0.0014666424
-9.8425517e-10
0.0014666431
5.7049044e-10
2.2029431e-09
0.0014770628
6.1914119e-11
0.0014768387
-3.2109743e-10
0.0014758929
-3.4493413e-10
0.0014750276
-4.8674479e-10
0.001474539
-4.3911485e-10
0.0014743238
-2.8730417e-10
0.0014742503
-2.2130626e-10
0.001474239
-1.5986687e-10
0.0014742499
-1.4716128e-10
0.0014742646
-1.2635395e-10
0.0014742768
-1.0560753e-10
0.0014742854
-8.6133502e-11
0.001474291
-7.1147228e-11
0.0014742946
-5.6680951e-11
0.0014742967
-4.495054e-11
0.0014742979
-3.4404875e-11
0.0014742987
-2.6680111e-11
0.0014742991
-1.9608741e-11
0.0014742993
-1.4759592e-11
0.0014742995
-1.0426117e-11
0.0014742995
-7.7577593e-12
0.0014742996
-5.2484544e-12
0.0014742996
-3.9615039e-12
0.0014742996
-2.4883261e-12
0.0014742996
-1.9589454e-12
0.0014742996
-1.0577202e-12
0.0014742996
-9.2084953e-13
0.0014742996
-3.5437159e-13
0.0014742996
-4.3945209e-13
0.0014742996
-4.0048321e-15
0.0014742996
-1.9983206e-13
0.0014742996
1.246477e-13
0.0014742996
-1.2806835e-13
0.0014742996
1.8592897e-13
0.0014742996
-8.5353932e-14
0.0014742996
1.8219808e-13
0.0014742996
-1.0261591e-13
0.0014742996
1.921066e-13
0.0014742996
-8.6107246e-14
0.0014742996
1.6348695e-13
0.0014742996
-1.1476287e-13
0.0014742996
1.761556e-13
0.0014742996
-1.1149332e-13
0.0014742996
1.5320237e-13
0.0014742996
-1.3679299e-13
0.0014742996
1.5875865e-13
0.0014742996
-1.2490577e-13
0.0014742996
1.4170378e-13
0.0014742996
-1.466913e-13
0.0014742996
1.5185374e-13
0.0014742996
-1.3108539e-13
0.0014742996
1.3723491e-13
0.0014742996
-1.5031259e-13
0.0014742996
1.4928296e-13
0.0014742996
-1.3307381e-13
0.0014742996
1.3615116e-13
0.0014742996
-1.5116421e-13
0.0014742996
1.491814e-13
0.0014742996
-1.330625e-13
0.0014742996
1.3661597e-13
0.0014742996
-1.5057575e-13
0.0014742996
1.4987412e-13
0.0014742996
-1.3233688e-13
0.0014742996
1.3706889e-13
0.0014742996
-1.502963e-13
0.0014742996
1.4945228e-13
0.0014742996
-1.328357e-13
0.0014742996
1.3563405e-13
0.0014742996
-1.5132225e-13
0.0014742996
1.4766031e-13
0.0014742996
-1.3299058e-13
0.0014742996
1.3525403e-13
0.0014742996
-1.4979879e-13
0.0014742996
1.4844859e-13
0.0014742996
-1.3504271e-13
0.0014742996
1.3423724e-13
0.0014742996
-1.6940954e-13
0.0014742996
1.2251844e-13
0.0014742996
-1.9022714e-13
0.0014742996
4.5745209e-14
0.0014742996
-2.9711867e-13
0.0014742996
-4.7187192e-14
0.0014742996
-4.2720438e-13
0.0014742996
-2.3416417e-13
0.0014742996
-6.5678078e-13
0.0014742996
-3.9515731e-13
0.0014742996
-7.1032637e-13
0.0014742996
-3.4193818e-13
0.0014742996
-5.5774773e-13
0.0014742996
-1.2268311e-13
0.0014742996
-2.0653079e-13
0.0014742995
3.9871458e-13
0.0014742995
5.9278992e-13
0.0014742993
1.5411097e-12
0.0014742991
1.7074925e-12
0.0014742986
2.1473505e-12
0.0014742978
1.4532227e-12
0.0014742968
1.1635863e-12
0.0014742974
2.7534869e-13
-1.1126643e-13
0.0014770625
-4.4086145e-07
0.0014768387
2.2417751e-07
0.0014758929
9.4549584e-07
0.0014750276
8.6458703e-07
0.001474539
4.881079e-07
0.0014743238
2.1486297e-07
0.0014742502
7.3482648e-08
0.001474239
1.1239435e-08
0.0014742499
-1.0808074e-08
0.0014742646
-1.4548207e-08
0.0014742768
-1.2097396e-08
0.0014742854
-8.5388081e-09
0.001474291
-5.5826203e-09
0.0014742946
-3.4785221e-09
0.0014742967
-2.1027102e-09
0.001474298
-1.2401714e-09
0.0014742987
-7.2136245e-10
0.0014742991
-4.1347379e-10
0.0014742993
-2.358474e-10
0.0014742995
-1.3294055e-10
0.0014742995
-7.5382878e-11
0.0014742996
-4.2011253e-11
0.0014742996
-2.4157449e-11
0.0014742996
-1.3263729e-11
0.0014742996
-7.8986453e-12
0.0014742996
-4.2145089e-12
0.0014742996
-2.6386357e-12
0.0014742996
-1.3704106e-12
0.0014742996
-9.269422e-13
0.0014742996
-4.2839761e-13
0.0014742996
-3.6524314e-13
0.0014742996
-1.855191e-13
0.0014742996
-2.0277273e-13
0.0014742996
-6.6176419e-14
0.0014742996
-1.5750095e-13
0.0014742996
-6.1510284e-14
0.0014742996
-1.4800978e-13
0.0014742996
3.0455943e-15
0.0014742996
-1.3408657e-13
0.0014742996
-6.5683509e-16
0.0014742996
-1.306014e-13
0.0014742996
6.8394917e-14
0.0014742996
-1.3286449e-13
0.0014742996
5.3863252e-14
0.0014742996
-1.2645541e-13
0.0014742996
9.3288514e-14
0.0014742996
-1.1189171e-13
0.0014742996
7.1726974e-14
0.0014742996
-1.1134282e-13
0.0014742996
1.0459869e-13
0.0014742996
-1.0211981e-13
0.0014742996
8.0193444e-14
0.0014742996
-1.050046e-13
0.0014742996
1.0982708e-13
0.0014742996
-9.8186185e-14
0.0014742996
8.3557306e-14
0.0014742996
-1.0216952e-13
0.0014742996
1.1224407e-13
0.0014742996
-9.6170345e-14
0.0014742996
8.537998e-14
0.0014742996
-1.0059764e-13
0.0014742996
1.13611e-13
0.0014742996
-9.5105805e-14
0.0014742996
8.5975177e-14
0.0014742996
-1.0065734e-13
0.0014742996
1.1269833e-13
0.0014742996
-9.679011e-14
0.0014742996
8.3447937e-14
0.0014742996
-1.0371072e-13
0.0014742996
1.093537e-13
0.0014742996
-9.9269886e-14
0.0014742996
8.2076431e-14
0.0014742996
-1.0323009e-13
0.0014742996
1.1111042e-13
0.0014742996
-9.9253886e-14
0.0014742996
7.7126807e-14
0.0014742996
-1.2138939e-13
0.0014742996
6.9641638e-14
0.0014742996
-1.5287456e-13
0.0014742996
-5.4584187e-14
0.0014742996
-2.4913652e-13
0.0014742996
-1.2739564e-13
0.0014742996
-3.7328072e-13
0.0014742996
-2.5451284e-13
0.0014742996
-4.1795037e-13
0.0014742996
-4.6855799e-14
0.0014742996
3.9774746e-13
0.0014742996
1.9212672e-12
0.0014742996
4.25028e-12
0.0014742996
9.8505356e-12
0.0014742996
1.887559e-11
0.0014742995
3.8063386e-11
0.0014742995
7.2340411e-11
0.0014742993
1.3877372e-10
0.0014742991
2.5207233e-10
0.0014742986
4.5312494e-10
0.0014742978
8.2648984e-10
0.0014742968
9.8573792e-10
0.0014742974
-5.7013147e-10
-2.203188e-09
0.0014683805
-1.1247907e-06
0.0014684874
1.179583e-07
0.0014676896
1.7436136e-06
0.0014669776
1.5767431e-06
0.0014666555
8.1031528e-07
0.0014665576
3.1296177e-07
0.0014665494
8.194805e-08
0.0014665691
-8.1204827e-09
0.0014665945
-3.5875188e-08
0.0014666138
-3.3548035e-08
0.0014666264
-2.4463209e-08
0.0014666342
-1.6196395e-08
0.0014666389
-1.012866e-08
0.0014666417
-6.1160719e-09
0.0014666433
-3.5964912e-09
0.0014666441
-2.0803981e-09
0.0014666447
-1.1848382e-09
0.0014666449
-6.692371e-10
0.0014666451
-3.734352e-10
0.0014666452
-2.0827614e-10
0.0014666452
-1.1466845e-10
0.0014666452
-6.4146275e-11
0.0014666452
-3.4899293e-11
0.0014666452
-2.0010436e-11
0.0014666452
-1.0586451e-11
0.0014666452
-6.4262466e-12
0.0014666452
-3.3282658e-12
0.0014666452
-2.1770546e-12
0.0014666452
-1.067715e-12
0.0014666452
-8.7242923e-13
0.0014666452
-3.7555985e-13
0.0014666452
-5.4759357e-13
0.0014666452
-1.4462679e-13
0.0014666452
-4.1990811e-13
0.0014666452
-1.0020012e-13
0.0014666452
-4.0468187e-13
0.0014666452
-2.7522065e-14
0.0014666452
-3.4420509e-13
0.0014666452
8.5540589e-15
0.0014666452
-3.382611e-13
0.0014666452
1.0178998e-13
0.0014666452
-3.0099452e-13
0.0014666452
1.1672328e-13
0.0014666452
-2.9315499e-13
0.0014666452
1.6732958e-13
0.0014666452
-2.4180272e-13
0.0014666452
1.6696114e-13
0.0014666452
-2.5182098e-13
0.0014666452
2.0263688e-13
0.0014666452
-2.1374402e-13
0.0014666452
1.9014316e-13
0.0014666452
-2.3446566e-13
0.0014666452
2.17015e-13
0.0014666452
-2.0315977e-13
0.0014666452
1.9870664e-13
0.0014666452
-2.281932e-13
0.0014666452
2.2213099e-13
0.0014666452
-1.9939673e-13
0.0014666452
2.0174079e-13
0.0014666452
-2.2581145e-13
0.0014666452
2.2412243e-13
0.0014666452
-1.9777844e-13
0.0014666452
2.0280871e-13
0.0014666452
-2.2522988e-13
0.0014666452
2.2382619e-13
0.0014666452
-1.9903727e-13
0.0014666452
2.0002342e-13
0.0014666452
-2.2886902e-13
0.0014666452
2.1918303e-13
0.0014666452
-2.0356933e-13
0.0014666452
1.955707e-13
0.0014666452
-2.3025993e-13
0.0014666452
2.2036223e-13
0.0014666452
-1.9903001e-13
0.0014666452
1.9901728e-13
0.0014666452
-2.3000152e-13
0.0014666452
2.0361795e-13
0.0014666452
-2.4278577e-13
0.0014666452
1.1748945e-13
0.0014666452
-3.428839e-13
0.0014666452
2.9283563e-14
0.0014666452
-4.2803748e-13
0.0014666452
-9.7914199e-14
0.0014666452
-5.4024287e-13
0.0014666452
-7.1988076e-14
0.0014666452
-1.5696776e-13
0.0014666452
1.0354338e-12
0.0014666452
2.5667349e-12
0.0014666452
7.1148394e-12
0.0014666452
1.3831733e-11
0.0014666452
2.962756e-11
0.0014666452
5.7251474e-11
0.0014666452
1.1516769e-10
0.0014666451
2.2579456e-10
0.0014666449
4.2955002e-10
0.0014666445
8.2284108e-10
0.0014666437
1.6975344e-09
0.0014666424
2.2078207e-09
0.0014666431
-1.2855425e-09
-4.7523646e-09
0.0014279108
-2.2860859e-06
0.0014289421
-9.1279511e-07
0.0014289427
1.7431601e-06
0.0014288811
1.6382852e-06
0.0014289872
7.0414826e-07
0.0014291089
1.9134801e-07
0.0014291941
-3.0818071e-09
0.0014292518
-6.5556319e-08
0.0014292842
-6.7992307e-08
0.0014293005
-4.948637e-08
0.0014293081
-3.1902518e-08
0.0014293117
-1.9527266e-08
0.0014293133
-1.1577961e-08
0.001429314
-6.6879381e-09
0.0014293143
-3.8027905e-09
0.0014293144
-2.1342865e-09
0.0014293144
-1.1872143e-09
0.0014293144
-6.547034e-10
0.0014293144
-3.5874143e-10
0.0014293144
-1.9572874e-10
0.0014293144
-1.0653876e-10
0.0014293144
-5.8110188e-11
0.0014293144
-3.1842876e-11
0.0014293144
-1.7589205e-11
0.0014293144
-9.7112124e-12
0.0014293144
-5.5754913e-12
0.0014293144
-3.188458e-12
0.0014293144
-1.9367323e-12
0.0014293144
-1.1481233e-12
0.0014293144
-8.4731989e-13
0.0014293144
-5.8647284e-13
0.0014293144
-5.1102187e-13
0.0014293144
-3.6290567e-13
0.0014293144
-3.987713e-13
0.0014293144
-3.0878076e-13
0.0014293144
-3.2003202e-13
0.0014293144
-2.170323e-13
0.0014293144
-2.625273e-13
0.0014293144
-1.8013121e-13
0.0014293144
-1.9823278e-13
0.0014293144
-8.6477621e-14
0.0014293144
-1.6354557e-13
0.0014293144
-7.8487654e-14
0.0014293144
-1.2045126e-13
0.0014293144
-4.8046246e-15
0.0014293144
-1.0106843e-13
0.0014293144
-9.1289788e-15
0.0014293144
-7.7687873e-14
0.0014293144
3.8068684e-14
0.0014293144
-7.0412012e-14
0.0014293144
2.0154965e-14
0.0014293144
-5.7942137e-14
0.0014293144
5.6769164e-14
0.0014293144
-5.8470112e-14
0.0014293144
3.1696453e-14
0.0014293144
-5.0645505e-14
0.0014293144
6.3471393e-14
0.0014293144
-5.3881858e-14
0.0014293144
3.5857338e-14
0.0014293144
-4.7854837e-14
0.0014293144
6.5821326e-14
0.0014293144
-5.2106965e-14
0.0014293144
3.7293863e-14
0.0014293144
-4.7239998e-14
0.0014293144
6.544983e-14
0.0014293144
-5.3344859e-14
0.0014293144
3.4384472e-14
0.0014293144
-5.0962888e-14
0.0014293144
6.1127502e-14
0.0014293144
-5.7437601e-14
0.0014293144
2.9378445e-14
0.0014293144
-5.1323024e-14
0.0014293144
6.3832647e-14
0.0014293144
-4.9514404e-14
0.0014293144
3.1054293e-14
0.0014293144
-4.4035564e-14
0.0014293144
4.5899792e-14
0.0014293144
-8.1895362e-14
0.0014293144
-5.4975247e-14
0.0014293144
-1.5363611e-13
0.0014293144
-1.3121429e-13
0.0014293144
-2.694457e-13
0.0014293144
-2.7280723e-13
0.0014293144
-3.6867873e-13
0.0014293144
-3.1446925e-13
0.0014293144
-2.444809e-13
0.0014293144
3.747713e-13
0.0014293144
1.9396276e-12
0.0014293144
5.1357441e-12
0.0014293144
1.1385092e-11
0.0014293144
2.3848155e-11
0.0014293144
4.8854314e-11
0.0014293145
1.0228797e-10
0.0014293145
2.1533427e-10
0.0014293145
4.2659114e-10
0.0014293144
9.1658146e-10
0.0014293137
2.3453397e-09
0.0014293125
3.4237576e-09
0.0014293132
-2.0087813e-09
-6.9198808e-09
0.0012713517
-3.0683168e-06
0.0012727598
-2.3209545e-06
0.0012741192
3.8336172e-07
0.0012750824
6.7462076e-07
0.001275644
1.4221398e-07
0.0012758963
-6.1138318e-08
0.0012759909
-9.7666661e-08
0.0012760155
-8.9985776e-08
0.0012760135
-6.5720192e-08
0.0012760044
-4.0167783e-08
0.0012759958
-2.3076865e-08
0.0012759896
-1.306438e-08
0.0012759854
-7.2830048e-09
0.0012759829
-3.9942367e-09
0.0012759813
-2.1724987e-09
0.0012759804
-1.1724918e-09
0.0012759799
-6.2942809e-10
0.0012759796
-3.3544717e-10
0.0012759795
-1.7858744e-10
0.0012759794
-9.4556064e-11
0.0012759793
-5.0634605e-11
0.0012759793
-2.713937e-11
0.0012759793
-1.5080217e-11
0.0012759793
-8.4435789e-12
0.0012759793
-5.0751462e-12
0.0012759793
-2.9206978e-12
0.0012759793
-2.1544002e-12
0.0012759793
-1.1313838e-12
0.0012759793
-1.1647328e-12
0.0012759793
-5.8753463e-13
0.0012759793
-7.8726455e-13
0.0012759793
-3.1763954e-13
0.0012759793
-5.62588e-13
0.0012759793
-2.1490046e-13
0.0012759793
-4.378274e-13
0.0012759793
-1.0071219e-13
0.0012759793
-3.4429388e-13
0.0012759793
-4.591332e-14
0.0012759793
-2.9026002e-13
0.0012759793
3.4812288e-14
0.0012759793
-2.3780181e-13
0.0012759793
5.0443739e-14
0.0012759793
-2.1804903e-13
0.0012759793
1.0063571e-13
0.0012759793
-1.9233893e-13
0.0012759793
1.0485797e-13
0.0012759793
-1.8477176e-13
0.0012759793
1.3492049e-13
0.0012759793
-1.6377829e-13
0.0012759793
1.2416839e-13
0.0012759793
-1.6198517e-13
0.0012759793
1.4559322e-13
0.0012759793
-1.469722e-13
0.0012759793
1.3027925e-13
0.0012759793
-1.5087416e-13
0.0012759793
1.4954639e-13
0.0012759793
-1.3940249e-13
0.0012759793
1.33041e-13
0.0012759793
-1.4697845e-13
0.0012759793
1.517083e-13
0.0012759793
-1.3701882e-13
0.0012759793
1.3451797e-13
0.0012759793
-1.460685e-13
0.0012759793
1.5225716e-13
0.0012759793
-1.3720244e-13
0.0012759793
1.3377467e-13
0.0012759793
-1.4785089e-13
0.0012759793
1.5030881e-13
0.0012759793
-1.3955442e-13
0.0012759793
1.3222112e-13
0.0012759793
-1.4946284e-13
0.0012759793
1.5204118e-13
0.0012759793
-1.3684818e-13
0.0012759793
1.3892241e-13
0.0012759793
-1.4566397e-13
0.0012759793
1.5350674e-13
0.0012759793
-1.4807545e-13
0.0012759793
1.0718902e-13
0.0012759793
-2.050384e-13
0.0012759793
6.0887835e-14
0.0012759793
-2.7479934e-13
0.0012759793
-3.5687644e-14
0.0012759793
-3.7131344e-13
0.0012759793
-1.0339166e-13
0.0012759793
-4.9464684e-13
0.0012759793
-2.0422848e-13
0.0012759793
-4.0988231e-13
0.0012759793
4.889302e-13
0.0012759793
1.3429415e-12
0.0012759793
3.7645458e-12
0.0012759793
7.9454608e-12
0.0012759793
1.7867201e-11
0.0012759794
4.0985403e-11
0.0012759795
9.5309479e-11
0.0012759798
1.9803279e-10
0.0012759801
5.3117447e-10
0.0012759807
1.7696991e-09
0.0012759814
2.6953209e-09
0.0012759805
-1.0903631e-09
-4.4438654e-09
0.00074715375
0.00074483258
0.00074521564
0.00074588998
0.00074603203
0.00074597084
0.00074587321
0.00074578331
0.00074571771
0.00074567766
0.00074565469
0.00074564171
0.0007456345
0.00074563055
0.00074562842
0.00074562728
0.00074562667
0.00074562635
0.00074562618
0.00074562609
0.00074562604
0.00074562601
0.000745626
0.00074562599
0.00074562598
0.00074562598
0.00074562598
0.00074562598
0.00074562598
0.00074562597
0.00074562597
0.00074562597
0.00074562597
0.00074562597
0.00074562597
0.00074562597
0.00074562597
0.00074562597
0.00074562597
0.00074562597
0.00074562597
0.00074562597
0.00074562597
0.00074562597
0.00074562597
0.00074562597
0.00074562597
0.00074562597
0.00074562597
0.00074562597
0.00074562597
0.00074562597
0.00074562597
0.00074562597
0.00074562597
0.00074562597
0.00074562597
0.00074562597
0.00074562597
0.00074562597
0.00074562597
0.00074562597
0.00074562597
0.00074562597
0.00074562597
0.00074562597
0.00074562597
0.00074562597
0.00074562597
0.00074562597
0.00074562597
0.00074562597
0.00074562597
0.00074562597
0.00074562597
0.00074562597
0.00074562597
0.00074562597
0.00074562597
0.00074562597
0.00074562597
0.00074562597
0.00074562597
0.00074562597
0.00074562597
0.00074562597
0.00074562597
0.00074562597
0.00074562597
0.00074562598
0.00074562598
0.000745626
0.00074562604
0.00074562614
0.00074562633
0.00074562686
0.00074562863
0.00074563133
0.00074563024
)
;

boundaryField
{
    top
    {
        type            calculated;
        value           uniform 0;
    }
    inlet
    {
        type            calculated;
        value           nonuniform List<scalar> 10(-0.00075022237 -0.0012705694 -0.0014267479 -0.0014676963 -0.0014766214 -0.0014766213 -0.0014676957 -0.0014267489 -0.0012705691 -0.00075022212);
    }
    outlet
    {
        type            calculated;
        value           nonuniform List<scalar> 10(0.00074562579 0.001275978 0.0014293154 0.0014666457 0.0014742996 0.0014742996 0.0014666457 0.0014293154 0.001275978 0.00074562579);
    }
    bottom
    {
        type            calculated;
        value           uniform 0;
    }
    back
    {
        type            empty;
        value           nonuniform 0();
    }
    front
    {
        type            empty;
        value           nonuniform 0();
    }
}


// ************************************************************************* //
