/*--------------------------------*- C++ -*----------------------------------*\
| =========                 |                                                 |
| \\      /  F ield         | OpenFOAM: The Open Source CFD Toolbox           |
|  \\    /   O peration     | Version:  4.1                                   |
|   \\  /    A nd           | Web:      www.OpenFOAM.org                      |
|    \\/     M anipulation  |                                                 |
\*---------------------------------------------------------------------------*/
FoamFile
{
    version     2.0;
    format      ascii;
    class       volVectorField;
    location    "1";
    object      U;
}
// * * * * * * * * * * * * * * * * * * * * * * * * * * * * * * * * * * * * * //

dimensions      [0 1 -1 0 0 0 0];

internalField   nonuniform List<vector> 
1000
(
(0.077460529 0.00017949939 0)
(0.07767105 0.00015143511 0)
(0.077105724 -2.0272994e-05 0)
(0.077191559 -3.6138497e-05 0)
(0.077271487 1.7437197e-06 0)
(0.077251055 1.1725711e-05 0)
(0.077236494 9.334704e-06 0)
(0.077228675 6.9209655e-06 0)
(0.077220305 4.6034492e-06 0)
(0.077214311 2.694827e-06 0)
(0.077211007 1.5004884e-06 0)
(0.077209198 8.2733324e-07 0)
(0.077208178 4.5118645e-07 0)
(0.077207616 2.4320184e-07 0)
(0.077207313 1.3001946e-07 0)
(0.077207151 6.907168e-08 0)
(0.077207065 3.6450153e-08 0)
(0.077207019 1.9129358e-08 0)
(0.077206996 9.9612997e-09 0)
(0.077206983 5.1634947e-09 0)
(0.077206977 2.6494095e-09 0)
(0.077206974 1.3612509e-09 0)
(0.077206972 6.8237853e-10 0)
(0.077206971 3.4865333e-10 0)
(0.07720697 1.6991265e-10 0)
(0.07720697 1.0229533e-10 0)
(0.07720697 5.2236312e-11 0)
(0.07720697 4.4979105e-11 0)
(0.07720697 2.6190337e-11 0)
(0.07720697 3.2692436e-11 0)
(0.07720697 1.8550433e-11 0)
(0.077206969 2.6697305e-11 0)
(0.077206969 1.4553425e-11 0)
(0.077206969 2.4090844e-11 0)
(0.077206969 9.9943566e-12 0)
(0.077206969 1.8432924e-11 0)
(0.077206969 6.0850695e-12 0)
(0.077206969 1.5741871e-11 0)
(0.077206969 2.6102159e-12 0)
(0.077206969 1.1566108e-11 0)
(0.077206969 2.4068284e-13 0)
(0.077206969 1.0580004e-11 0)
(0.077206969 -1.7609643e-12 0)
(0.077206969 7.8104172e-12 0)
(0.077206969 -2.8269536e-12 0)
(0.077206969 8.1030839e-12 0)
(0.077206969 -3.8460565e-12 0)
(0.077206969 5.9048312e-12 0)
(0.077206969 -4.3107762e-12 0)
(0.077206969 6.9394759e-12 0)
(0.077206969 -4.8315714e-12 0)
(0.077206969 5.1004178e-12 0)
(0.077206969 -4.9740948e-12 0)
(0.077206969 6.4129651e-12 0)
(0.077206969 -5.2168781e-12 0)
(0.077206969 4.8066899e-12 0)
(0.077206969 -5.1670753e-12 0)
(0.077206969 6.2728759e-12 0)
(0.077206969 -5.3085635e-12 0)
(0.077206969 4.7376323e-12 0)
(0.077206969 -5.1970753e-12 0)
(0.077206969 6.2640016e-12 0)
(0.077206969 -5.2936151e-12 0)
(0.077206969 4.7715619e-12 0)
(0.077206969 -5.1250974e-12 0)
(0.077206969 6.3811157e-12 0)
(0.077206969 -5.1363602e-12 0)
(0.077206969 4.9703581e-12 0)
(0.077206969 -4.8528189e-12 0)
(0.077206969 6.7043308e-12 0)
(0.077206969 -4.7756184e-12 0)
(0.077206969 5.4266071e-12 0)
(0.077206969 -4.4107674e-12 0)
(0.077206969 7.2952406e-12 0)
(0.077206969 -4.0652623e-12 0)
(0.077206969 6.4745169e-12 0)
(0.077206969 -3.0246367e-12 0)
(0.077206969 9.4286392e-12 0)
(0.077206969 -9.5715395e-13 0)
(0.077206969 1.1129829e-11 0)
(0.077206969 2.5887093e-12 0)
(0.077206969 1.6409253e-11 0)
(0.077206969 6.6258959e-12 0)
(0.077206969 2.0482106e-11 0)
(0.077206969 1.5070266e-11 0)
(0.077206969 3.4412734e-11 0)
(0.077206969 2.9606867e-11 0)
(0.077206969 3.5497869e-11 0)
(0.077206969 -1.169464e-11 0)
(0.077206969 -1.0173878e-10 0)
(0.07720697 -3.3397512e-10 0)
(0.077206971 -8.3349608e-10 0)
(0.077206974 -2.1809059e-09 0)
(0.077206981 -5.3079621e-09 0)
(0.077206978 -1.2081772e-08 0)
(0.077207015 -3.7021621e-08 0)
(0.077207335 -1.1401449e-07 0)
(0.077207388 -1.5417993e-07 0)
(0.077206072 8.862278e-08 0)
(0.077208762 2.9270448e-07 0)
(0.13123053 0.000289921 0)
(0.13275199 0.00018268913 0)
(0.13178286 -0.00013568349 0)
(0.13191977 -0.00014399593 0)
(0.1321115 -4.7773566e-05 0)
(0.1321099 -3.9200359e-06 0)
(0.13211501 7.4196932e-06 0)
(0.13212713 9.7716082e-06 0)
(0.13212836 8.0783849e-06 0)
(0.13212655 5.3413935e-06 0)
(0.13212538 3.2400802e-06 0)
(0.13212461 1.9030853e-06 0)
(0.13212406 1.091129e-06 0)
(0.1321237 6.135659e-07 0)
(0.13212349 3.4039278e-07 0)
(0.13212336 1.8689769e-07 0)
(0.13212329 1.0163994e-07 0)
(0.13212325 5.4790255e-08 0)
(0.13212323 2.9284383e-08 0)
(0.13212322 1.5534087e-08 0)
(0.13212321 8.1707861e-09 0)
(0.13212321 4.2701243e-09 0)
(0.13212321 2.2032563e-09 0)
(0.13212321 1.1313743e-09 0)
(0.13212321 5.7344679e-10 0)
(0.13212321 3.0092904e-10 0)
(0.13212321 1.5549422e-10 0)
(0.13212321 9.3307521e-11 0)
(0.13212321 5.6969351e-11 0)
(0.13212321 4.9739427e-11 0)
(0.13212321 3.7697605e-11 0)
(0.13212321 3.9237385e-11 0)
(0.13212321 3.4327609e-11 0)
(0.13212321 3.8418488e-11 0)
(0.13212321 3.1198613e-11 0)
(0.13212321 3.1432618e-11 0)
(0.13212321 2.501864e-11 0)
(0.13212321 2.7184144e-11 0)
(0.13212321 1.8342174e-11 0)
(0.13212321 1.8602739e-11 0)
(0.13212321 1.2682134e-11 0)
(0.13212321 1.5865242e-11 0)
(0.13212321 8.1406119e-12 0)
(0.13212321 9.7285075e-12 0)
(0.13212321 4.8729752e-12 0)
(0.13212321 9.3135857e-12 0)
(0.13212321 2.5122626e-12 0)
(0.13212321 5.0627109e-12 0)
(0.13212321 9.0986724e-13 0)
(0.13212321 6.1328788e-12 0)
(0.13212321 -2.0258828e-13 0)
(0.13212321 2.8730306e-12 0)
(0.13212321 -9.8403184e-13 0)
(0.13212321 4.5885795e-12 0)
(0.13212321 -1.4880548e-12 0)
(0.13212321 1.8140782e-12 0)
(0.13212321 -1.8496039e-12 0)
(0.13212321 3.8987506e-12 0)
(0.13212321 -2.0551453e-12 0)
(0.13212321 1.3454402e-12 0)
(0.13212321 -2.2018105e-12 0)
(0.13212321 3.6439501e-12 0)
(0.13212321 -2.2256668e-12 0)
(0.13212321 1.2431375e-12 0)
(0.13212321 -2.2236874e-12 0)
(0.13212321 3.6922215e-12 0)
(0.13212321 -2.0776194e-12 0)
(0.13212321 1.4923872e-12 0)
(0.13212321 -1.8055201e-12 0)
(0.13212321 4.2438646e-12 0)
(0.13212321 -1.2917252e-12 0)
(0.13212321 2.4452774e-12 0)
(0.13212321 -5.5817428e-13 0)
(0.13212321 5.6162403e-12 0)
(0.13212321 4.2062068e-13 0)
(0.13212321 4.3858536e-12 0)
(0.13212321 1.7960979e-12 0)
(0.13212321 8.7750235e-12 0)
(0.13212321 4.8928654e-12 0)
(0.13212321 1.0624911e-11 0)
(0.13212321 9.08673e-12 0)
(0.13212321 1.6072038e-11 0)
(0.13212321 1.0299867e-11 0)
(0.13212321 1.2987401e-11 0)
(0.13212321 7.1192346e-12 0)
(0.13212321 8.045558e-12 0)
(0.13212321 -2.2708261e-11 0)
(0.13212321 -9.1408986e-11 0)
(0.13212321 -2.9296511e-10 0)
(0.13212321 -7.1841921e-10 0)
(0.13212321 -1.619021e-09 0)
(0.13212321 -3.4710685e-09 0)
(0.13212322 -7.6779032e-09 0)
(0.13212323 -1.6822481e-08 0)
(0.13212321 -3.4253207e-08 0)
(0.13212323 -8.3996403e-08 0)
(0.13212372 -2.4126367e-07 0)
(0.1321235 -3.5098718e-07 0)
(0.13212007 1.8074482e-07 0)
(0.13212675 6.6819266e-07 0)
(0.14732551 0.00016491196 0)
(0.14921234 1.2387982e-05 0)
(0.14787381 -0.00021283526 0)
(0.1478631 -0.00019057962 0)
(0.14800492 -9.3332154e-05 0)
(0.14797393 -3.4610078e-05 0)
(0.14797481 -8.1511586e-06 0)
(0.14799168 2.439011e-06 0)
(0.14799718 4.7892015e-06 0)
(0.14799848 4.0806668e-06 0)
(0.14799953 2.8544796e-06 0)
(0.14800013 1.8415296e-06 0)
(0.14800037 1.1306526e-06 0)
(0.14800046 6.7093811e-07 0)
(0.1480005 3.8889703e-07 0)
(0.14800052 2.2147456e-07 0)
(0.14800052 1.2428377e-07 0)
(0.14800052 6.883747e-08 0)
(0.14800052 3.7694319e-08 0)
(0.14800052 2.0422502e-08 0)
(0.14800052 1.0956663e-08 0)
(0.14800052 5.8134518e-09 0)
(0.14800052 3.0521561e-09 0)
(0.14800052 1.5800211e-09 0)
(0.14800052 8.0810386e-10 0)
(0.14800052 4.0422026e-10 0)
(0.14800052 2.0228533e-10 0)
(0.14800052 9.7469866e-11 0)
(0.14800052 5.4126686e-11 0)
(0.14800052 3.3476512e-11 0)
(0.14800052 2.8862405e-11 0)
(0.14800052 2.6027954e-11 0)
(0.14800052 2.9974402e-11 0)
(0.14800052 3.0298228e-11 0)
(0.14800052 3.1976181e-11 0)
(0.14800052 2.9611298e-11 0)
(0.14800052 3.0464903e-11 0)
(0.14800052 2.680661e-11 0)
(0.14800052 2.5497368e-11 0)
(0.14800052 1.9662435e-11 0)
(0.14800052 2.0089297e-11 0)
(0.14800052 1.53944e-11 0)
(0.14800052 1.4700994e-11 0)
(0.14800052 9.3981847e-12 0)
(0.14800052 1.0800442e-11 0)
(0.14800052 6.9357582e-12 0)
(0.14800052 7.4635533e-12 0)
(0.14800052 3.271964e-12 0)
(0.14800052 5.5658626e-12 0)
(0.14800052 2.5125714e-12 0)
(0.14800052 3.7919939e-12 0)
(0.14800052 2.0604775e-13 0)
(0.14800052 2.9920583e-12 0)
(0.14800052 3.8340993e-13 0)
(0.14800052 2.0445707e-12 0)
(0.14800052 -1.2244801e-12 0)
(0.14800052 1.8357176e-12 0)
(0.14800052 -5.3935096e-13 0)
(0.14800052 1.3073523e-12 0)
(0.14800052 -1.8054713e-12 0)
(0.14800052 1.3926347e-12 0)
(0.14800052 -8.6147351e-13 0)
(0.14800052 1.0801755e-12 0)
(0.14800052 -1.9448664e-12 0)
(0.14800052 1.3262568e-12 0)
(0.14800052 -8.6840815e-13 0)
(0.14800052 1.1350636e-12 0)
(0.14800052 -1.8243064e-12 0)
(0.14800052 1.5249984e-12 0)
(0.14800052 -5.9171467e-13 0)
(0.14800052 1.5072859e-12 0)
(0.14800052 -1.3595534e-12 0)
(0.14800052 2.1321529e-12 0)
(0.14800052 1.7847982e-13 0)
(0.14800052 2.3928618e-12 0)
(0.14800052 -3.3853799e-13 0)
(0.14800052 3.2812984e-12 0)
(0.14800052 1.394785e-12 0)
(0.14800052 3.7422137e-12 0)
(0.14800052 9.3350573e-13 0)
(0.14800052 2.8877185e-12 0)
(0.14800052 -2.2124993e-12 0)
(0.14800052 -7.7138184e-12 0)
(0.14800052 -2.2288364e-11 0)
(0.14800052 -3.8709316e-11 0)
(0.14800052 -7.8328816e-11 0)
(0.14800052 -1.5377978e-10 0)
(0.14800052 -3.3151e-10 0)
(0.14800052 -6.9492359e-10 0)
(0.14800052 -1.4550543e-09 0)
(0.14800053 -2.9527076e-09 0)
(0.14800053 -5.9283136e-09 0)
(0.14800053 -1.1979196e-08 0)
(0.14800053 -2.4283e-08 0)
(0.1480005 -4.6683426e-08 0)
(0.14800046 -9.3972178e-08 0)
(0.14800093 -2.1771241e-07 0)
(0.14800069 -3.0089001e-07 0)
(0.14799641 1.7530919e-07 0)
(0.14800444 6.2876791e-07 0)
(0.15152635 7.5055265e-05 0)
(0.15344995 -2.0527528e-05 0)
(0.15193036 -0.000140784 0)
(0.15182965 -0.00013059928 0)
(0.151921 -7.3762545e-05 0)
(0.15185759 -3.2824167e-05 0)
(0.15184439 -1.1356473e-05 0)
(0.1518563 -1.6178583e-06 0)
(0.15186022 1.6312842e-06 0)
(0.15186166 2.0954944e-06 0)
(0.15186332 1.7033835e-06 0)
(0.15186449 1.1937482e-06 0)
(0.15186514 7.7490592e-07 0)
(0.15186551 4.7896634e-07 0)
(0.15186572 2.8633429e-07 0)
(0.15186585 1.6699371e-07 0)
(0.15186592 9.5537151e-08 0)
(0.15186595 5.3728756e-08 0)
(0.15186598 2.9806121e-08 0)
(0.15186599 1.6285852e-08 0)
(0.15186599 8.8075722e-09 0)
(0.151866 4.6749725e-09 0)
(0.151866 2.4692833e-09 0)
(0.151866 1.2588242e-09 0)
(0.151866 6.5116565e-10 0)
(0.151866 3.0689208e-10 0)
(0.151866 1.6070867e-10 0)
(0.151866 6.0359636e-11 0)
(0.151866 4.5637855e-11 0)
(0.151866 1.2586531e-11 0)
(0.151866 2.9884968e-11 0)
(0.151866 9.9488319e-12 0)
(0.151866 3.2240109e-11 0)
(0.151866 1.4082191e-11 0)
(0.151866 3.4464322e-11 0)
(0.151866 1.4340051e-11 0)
(0.151866 3.2932981e-11 0)
(0.151866 1.1782779e-11 0)
(0.151866 2.8880266e-11 0)
(0.151866 7.1695794e-12 0)
(0.151866 2.3671215e-11 0)
(0.151866 2.8638943e-12 0)
(0.151866 1.9462308e-11 0)
(0.151866 -1.1835022e-12 0)
(0.151866 1.6096334e-11 0)
(0.151866 -3.6546055e-12 0)
(0.151866 1.3984145e-11 0)
(0.151866 -5.9533809e-12 0)
(0.151866 1.2191216e-11 0)
(0.151866 -6.9767564e-12 0)
(0.151866 1.132834e-11 0)
(0.151866 -8.1944387e-12 0)
(0.151866 1.0389285e-11 0)
(0.151866 -8.4514834e-12 0)
(0.151866 1.0171836e-11 0)
(0.151866 -9.111501e-12 0)
(0.151866 9.6855397e-12 0)
(0.151866 -9.0175941e-12 0)
(0.151866 9.752698e-12 0)
(0.151866 -9.427732e-12 0)
(0.151866 9.4566139e-12 0)
(0.151866 -9.1800831e-12 0)
(0.151866 9.6521558e-12 0)
(0.151866 -9.4797426e-12 0)
(0.151866 9.4318855e-12 0)
(0.151866 -9.1655308e-12 0)
(0.151866 9.6801079e-12 0)
(0.151866 -9.3972393e-12 0)
(0.151866 9.53547e-12 0)
(0.151866 -8.9450286e-12 0)
(0.151866 9.9391805e-12 0)
(0.151866 -8.9551067e-12 0)
(0.151866 9.9850179e-12 0)
(0.151866 -8.2989552e-12 0)
(0.151866 1.0485969e-11 0)
(0.151866 -8.413905e-12 0)
(0.151866 1.0164968e-11 0)
(0.151866 -8.5090314e-12 0)
(0.151866 9.705442e-12 0)
(0.151866 -1.1032623e-11 0)
(0.151866 5.4716211e-12 0)
(0.151866 -1.8661045e-11 0)
(0.151866 -8.9405687e-12 0)
(0.151866 -4.3828279e-11 0)
(0.151866 -4.9508308e-11 0)
(0.151866 -1.1356404e-10 0)
(0.151866 -1.7835364e-10 0)
(0.151866 -3.7010097e-10 0)
(0.151866 -6.9735399e-10 0)
(0.151866 -1.4063318e-09 0)
(0.151866 -2.7280186e-09 0)
(0.151866 -5.3164591e-09 0)
(0.151866 -1.0253949e-08 0)
(0.15186599 -1.9762837e-08 0)
(0.15186595 -3.6436904e-08 0)
(0.15186588 -6.6057276e-08 0)
(0.15186632 -1.2641545e-07 0)
(0.15186614 -1.578845e-07 0)
(0.15186164 9.3320569e-08 0)
(0.15186993 3.4627304e-07 0)
(0.15243527 2.093845e-05 0)
(0.15435722 -9.2257878e-06 0)
(0.15279194 -4.5890178e-05 0)
(0.15267069 -4.4094695e-05 0)
(0.15274473 -2.6569736e-05 0)
(0.15266599 -1.2670114e-05 0)
(0.15264369 -4.9085699e-06 0)
(0.15265122 -1.2473572e-06 0)
(0.15265318 2.1153457e-07 0)
(0.15265386 5.6594809e-07 0)
(0.15265539 5.2449479e-07 0)
(0.15265665 3.8942458e-07 0)
(0.15265742 2.6141729e-07 0)
(0.15265789 1.6498374e-07 0)
(0.15265818 9.9809618e-08 0)
(0.15265835 5.8530205e-08 0)
(0.15265845 3.3466003e-08 0)
(0.15265851 1.8701239e-08 0)
(0.15265854 1.0224879e-08 0)
(0.15265856 5.4565418e-09 0)
(0.15265857 2.837159e-09 0)
(0.15265858 1.4294474e-09 0)
(0.15265858 6.9245693e-10 0)
(0.15265858 3.1314524e-10 0)
(0.15265858 1.2975775e-10 0)
(0.15265858 4.0392263e-11 0)
(0.15265858 6.7901206e-12 0)
(0.15265858 -8.0842329e-12 0)
(0.15265858 -5.8666077e-12 0)
(0.15265858 -4.8755447e-12 0)
(0.15265858 4.7391822e-12 0)
(0.15265858 2.8268615e-12 0)
(0.15265858 1.0343374e-11 0)
(0.15265858 7.8648308e-12 0)
(0.15265858 1.4577955e-11 0)
(0.15265858 7.9911542e-12 0)
(0.15265858 1.1833508e-11 0)
(0.15265858 7.3039308e-12 0)
(0.15265858 1.1032637e-11 0)
(0.15265858 5.1291973e-12 0)
(0.15265858 7.0063379e-12 1.8810219e-33)
(0.15265858 3.5495908e-12 0)
(0.15265858 6.2425006e-12 0)
(0.15265858 1.3453468e-12 0)
(0.15265858 3.0053203e-12 0)
(0.15265858 5.952153e-13 0)
(0.15265858 3.7040045e-12 0)
(0.15265858 -6.1470051e-13 0)
(0.15265858 1.3692527e-12 0)
(0.15265858 -6.9305392e-13 0)
(0.15265858 2.6664602e-12 0)
(0.15265858 -1.4013304e-12 0)
(0.15265858 7.6377671e-13 0)
(0.15265858 -1.1403768e-12 0)
(0.15265858 2.3571888e-12 0)
(0.15265858 -1.5839046e-12 0)
(0.15265858 6.622255e-13 0)
(0.15265858 -1.161624e-12 0)
(0.15265858 2.3864441e-12 0)
(0.15265858 -1.5123736e-12 0)
(0.15265858 7.5898014e-13 0)
(0.15265858 -1.05052e-12 0)
(0.15265858 2.5068244e-12 0)
(0.15265858 -1.4015122e-12 0)
(0.15265858 8.4719273e-13 0)
(0.15265858 -9.9028402e-13 0)
(0.15265858 2.550842e-12 0)
(0.15265858 -1.3425643e-12 0)
(0.15265858 9.2535488e-13 0)
(0.15265858 -8.3996628e-13 0)
(0.15265858 2.7899674e-12 0)
(0.15265858 -1.0118178e-12 0)
(0.15265858 1.3422604e-12 0)
(0.15265858 -5.6430238e-13 0)
(0.15265858 2.781298e-12 0)
(0.15265858 -1.8003995e-12 0)
(0.15265858 -2.9832819e-13 0)
(0.15265858 -3.508999e-12 0)
(0.15265858 -1.4441331e-12 0)
(0.15265858 -9.1172144e-12 0)
(0.15265858 -9.8984729e-12 0)
(0.15265858 -1.9340929e-11 0)
(0.15265858 -2.3586753e-11 0)
(0.15265858 -4.1334433e-11 0)
(0.15265858 -5.5503574e-11 0)
(0.15265858 -8.1049919e-11 0)
(0.15265858 -1.14123e-10 0)
(0.15265858 -1.8276151e-10 0)
(0.15265858 -3.1610609e-10 0)
(0.15265858 -5.8024078e-10 0)
(0.15265858 -1.096814e-09 0)
(0.15265858 -2.0637784e-09 0)
(0.15265857 -3.8932094e-09 2.9638027e-35)
(0.15265857 -7.2884998e-09 0)
(0.15265852 -1.316086e-08 0)
(0.15265843 -2.2822824e-08 8.8914239e-36)
(0.15265887 -3.9576752e-08 0)
(0.15265873 -4.5943083e-08 0)
(0.15265419 2.6573848e-08 0)
(0.15266249 1.0269003e-07 0)
(0.15243528 -2.0927718e-05 0)
(0.1543572 9.2151193e-06 0)
(0.15279193 4.5851234e-05 0)
(0.15267069 4.404772e-05 0)
(0.15274473 2.6520328e-05 0)
(0.15266598 1.2628228e-05 0)
(0.15264368 4.8764011e-06 0)
(0.15265121 1.2206394e-06 0)
(0.15265318 -2.3614429e-07 0)
(0.15265386 -5.8770311e-07 0)
(0.15265539 -5.4354918e-07 0)
(0.15265665 -4.0555244e-07 0)
(0.15265742 -2.7489604e-07 0)
(0.15265789 -1.7586342e-07 0)
(0.15265818 -1.0852424e-07 0)
(0.15265836 -6.5296927e-08 0)
(0.15265846 -3.8719483e-08 0)
(0.15265851 -2.2617995e-08 0)
(0.15265854 -1.3178464e-08 0)
(0.15265856 -7.5816364e-09 0)
(0.15265857 -4.4217033e-09 0)
(0.15265858 -2.5245086e-09 0)
(0.15265858 -1.5080643e-09 0)
(0.15265858 -8.4861531e-10 0)
(0.15265858 -5.3711482e-10 0)
(0.15265858 -2.7651952e-10 0)
(0.15265858 -2.0232319e-10 0)
(0.15265858 -7.7687898e-11 0)
(0.15265858 -8.5884597e-11 0)
(0.15265858 -4.9118342e-12 0)
(0.15265858 -4.3614627e-11 0)
(0.15265858 1.6544411e-11 0)
(0.15265858 -3.2342814e-11 0)
(0.15265858 2.4838518e-11 0)
(0.15265858 -2.8205589e-11 0)
(0.15265858 2.3157914e-11 0)
(0.15265858 -2.9331578e-11 0)
(0.15265858 2.4795136e-11 0)
(0.15265858 -2.745006e-11 0)
(0.15265858 2.2218778e-11 0)
(0.15265858 -2.8117862e-11 -1.8810219e-33)
(0.15265858 2.3534616e-11 0)
(0.15265858 -2.6059456e-11 0)
(0.15265858 2.1726953e-11 0)
(0.15265858 -2.7023658e-11 0)
(0.15265858 2.4496599e-11 0)
(0.15265858 -2.5134151e-11 0)
(0.15265858 2.2595504e-11 0)
(0.15265858 -2.6218112e-11 0)
(0.15265858 2.5273479e-11 0)
(0.15265858 -2.4509488e-11 0)
(0.15265858 2.3099985e-11 0)
(0.15265858 -2.5820268e-11 0)
(0.15265858 2.5622458e-11 0)
(0.15265858 -2.4213987e-11 0)
(0.15265858 2.3370312e-11 0)
(0.15265858 -2.5588416e-11 0)
(0.15265858 2.583529e-11 0)
(0.15265858 -2.4030309e-11 0)
(0.15265858 2.3547883e-11 0)
(0.15265858 -2.5430506e-11 0)
(0.15265858 2.5975359e-11 0)
(0.15265858 -2.3924035e-11 0)
(0.15265858 2.3608513e-11 0)
(0.15265858 -2.5422056e-11 0)
(0.15265858 2.590376e-11 0)
(0.15265858 -2.4063273e-11 0)
(0.15265858 2.3373939e-11 0)
(0.15265858 -2.5672834e-11 0)
(0.15265858 2.5590636e-11 0)
(0.15265858 -2.4325306e-11 0)
(0.15265858 2.3106803e-11 0)
(0.15265858 -2.5870648e-11 0)
(0.15265858 2.5249047e-11 0)
(0.15265858 -2.5021823e-11 0)
(0.15265858 2.1590328e-11 0)
(0.15265858 -2.8676488e-11 0)
(0.15265858 2.0327227e-11 0)
(0.15265858 -3.2745674e-11 0)
(0.15265858 1.1934542e-11 0)
(0.15265858 -4.338765e-11 0)
(0.15265858 2.8119916e-12 0)
(0.15265858 -5.4812066e-11 0)
(0.15265858 -1.2949571e-11 0)
(0.15265858 -6.4288342e-11 0)
(0.15265858 -2.1715716e-12 0)
(0.15265858 -2.0062855e-11 0)
(0.15265858 1.0727767e-10 0)
(0.15265858 2.1344928e-10 0)
(0.15265858 5.4912428e-10 0)
(0.15265858 1.0566613e-09 0)
(0.15265858 2.1283196e-09 0)
(0.15265857 4.0132551e-09 -2.9638027e-35)
(0.15265857 7.5789723e-09 0)
(0.15265852 1.3497228e-08 0)
(0.15265843 2.3236489e-08 -8.8914239e-36)
(0.15265887 3.9908641e-08 0)
(0.15265873 4.6130355e-08 0)
(0.15265419 -2.6527734e-08 0)
(0.15266249 -1.0270926e-07 0)
(0.15152641 -7.5080894e-05 0)
(0.15344996 2.0496263e-05 0)
(0.15193037 0.00014073523 0)
(0.15182964 0.00013053599 0)
(0.15192099 7.3703739e-05 0)
(0.15185759 3.2779496e-05 0)
(0.15184439 1.1326517e-05 0)
(0.1518563 1.5943587e-06 0)
(0.15186023 -1.6502426e-06 0)
(0.15186167 -2.1124432e-06 0)
(0.15186332 -1.7183647e-06 0)
(0.15186449 -1.2067623e-06 0)
(0.15186514 -7.8589909e-07 0)
(0.15186551 -4.8823449e-07 0)
(0.15186573 -2.9387096e-07 0)
(0.15186585 -1.7302799e-07 0)
(0.15186592 -1.0018348e-07 0)
(0.15186596 -5.7286817e-08 0)
(0.15186598 -3.2422777e-08 0)
(0.15186599 -1.8245816e-08 0)
(0.15186599 -1.0206457e-08 0)
(0.151866 -5.7203596e-09 0)
(0.151866 -3.1950563e-09 0)
(0.151866 -1.8106409e-09 0)
(0.151866 -1.0075312e-09 0)
(0.151866 -5.7866647e-10 0)
(0.151866 -3.1486918e-10 0)
(0.151866 -1.9265239e-10 0)
(0.151866 -9.5340686e-11 0)
(0.151866 -6.7545975e-11 0)
(0.151866 -3.0811125e-11 0)
(0.151866 -3.6153775e-11 0)
(0.151866 -1.2819576e-11 0)
(0.151866 -2.3666201e-11 0)
(0.151866 -8.1739667e-12 0)
(0.151866 -2.3983499e-11 0)
(0.151866 -5.3593181e-12 0)
(0.151866 -1.8197952e-11 0)
(0.151866 -3.3221008e-12 0)
(0.151866 -1.9183844e-11 0)
(0.151866 -5.8414853e-13 0)
(0.151866 -1.2761223e-11 0)
(0.151866 1.9290258e-12 0)
(0.151866 -1.3816429e-11 0)
(0.151866 4.6752444e-12 0)
(0.151866 -8.5658874e-12 0)
(0.151866 5.6099935e-12 0)
(0.151866 -1.1089945e-11 0)
(0.151866 6.8974007e-12 0)
(0.151866 -6.8878562e-12 0)
(0.151866 6.9998055e-12 0)
(0.151866 -1.0066824e-11 0)
(0.151866 7.7265285e-12 0)
(0.151866 -6.2838918e-12 0)
(0.151866 7.4877684e-12 0)
(0.151866 -9.7151743e-12 0)
(0.151866 8.0151363e-12 0)
(0.151866 -6.0682863e-12 0)
(0.151866 7.6733725e-12 0)
(0.151866 -9.5680742e-12 0)
(0.151866 8.1364311e-12 0)
(0.151866 -5.9677361e-12 0)
(0.151866 7.7419997e-12 0)
(0.151866 -9.5520429e-12 0)
(0.151866 8.0757176e-12 0)
(0.151866 -6.1140028e-12 0)
(0.151866 7.4872167e-12 0)
(0.151866 -9.8858486e-12 0)
(0.151866 7.6926167e-12 0)
(0.151866 -6.4807407e-12 0)
(0.151866 7.1924785e-12 0)
(0.151866 -9.9219917e-12 0)
(0.151866 7.90931e-12 0)
(0.151866 -6.0374175e-12 0)
(0.151866 7.5172155e-12 0)
(0.151866 -9.9138773e-12 0)
(0.151866 6.3813951e-12 0)
(0.151866 -9.7162796e-12 0)
(0.151866 -8.7709385e-14 0)
(0.151866 -2.081683e-11 0)
(0.151866 -8.9191719e-12 0)
(0.151866 -2.7110378e-11 0)
(0.151866 -1.8609294e-11 0)
(0.151866 -3.6744687e-11 0)
(0.151866 -1.3071618e-11 0)
(0.151866 2.6054884e-12 0)
(0.151866 9.7018837e-11 0)
(0.151866 2.6258015e-10 0)
(0.151866 6.5063597e-10 0)
(0.151866 1.3567469e-09 0)
(0.151866 2.7414755e-09 0)
(0.151866 5.3384953e-09 0)
(0.151866 1.0389309e-08 0)
(0.15186599 1.9965788e-08 0)
(0.15186595 3.6768256e-08 0)
(0.15186588 6.6413359e-08 0)
(0.15186632 1.2670055e-07 0)
(0.15186614 1.5802505e-07 0)
(0.15186164 -9.3293103e-08 0)
(0.15186993 -3.4629286e-07 0)
(0.14732546 -0.00016492674 0)
(0.14921239 -1.2431681e-05 0)
(0.14787379 0.00021279287 0)
(0.14786308 0.00019054934 0)
(0.1480049 9.3299004e-05 0)
(0.14797392 3.4586226e-05 0)
(0.1479748 8.1282181e-06 0)
(0.14799167 -2.4573118e-06 0)
(0.14799717 -4.8035626e-06 0)
(0.14799849 -4.0923516e-06 0)
(0.14799954 -2.8642197e-06 0)
(0.14800014 -1.8499717e-06 0)
(0.14800037 -1.1379083e-06 0)
(0.14800046 -6.7721838e-07 0)
(0.1480005 -3.9410892e-07 0)
(0.14800052 -2.2576132e-07 0)
(0.14800053 -1.2759156e-07 0)
(0.14800053 -7.1425067e-08 0)
(0.14800053 -3.9604608e-08 0)
(0.14800053 -2.1898702e-08 0)
(0.14800053 -1.2010496e-08 0)
(0.14800053 -6.6432485e-09 0)
(0.14800053 -3.6292839e-09 0)
(0.14800052 -2.0483895e-09 0)
(0.14800052 -1.1062525e-09 0)
(0.14800052 -6.5971488e-10 0)
(0.14800052 -3.37505e-10 0)
(0.14800052 -2.3395528e-10 0)
(0.14800052 -9.8085292e-11 0)
(0.14800052 -1.0516248e-10 0)
(0.14800052 -3.3374778e-11 0)
(0.14800052 -7.0690259e-11 0)
(0.14800052 -1.1062842e-11 0)
(0.14800052 -5.94476e-11 0)
(0.14800052 -8.1493456e-12 0)
(0.14800052 -5.5633878e-11 0)
(0.14800052 1.7134902e-13 0)
(0.14800052 -4.8714841e-11 0)
(0.14800052 1.8924746e-12 0)
(0.14800052 -4.422552e-11 0)
(0.14800052 1.052131e-11 0)
(0.14800052 -3.6252928e-11 0)
(0.14800052 1.2075602e-11 0)
(0.14800052 -3.3339755e-11 0)
(0.14800052 1.8809334e-11 0)
(0.14800052 -2.891929e-11 0)
(0.14800052 1.7938884e-11 0)
(0.14800052 -2.8123909e-11 0)
(0.14800052 2.3117619e-11 0)
(0.14800052 -2.5462579e-11 0)
(0.14800052 2.073457e-11 0)
(0.14800052 -2.5955055e-11 0)
(0.14800052 2.4930897e-11 0)
(0.14800052 -2.4143221e-11 0)
(0.14800052 2.1820422e-11 0)
(0.14800052 -2.5139149e-11 0)
(0.14800052 2.5646222e-11 0)
(0.14800052 -2.3613084e-11 0)
(0.14800052 2.2265417e-11 0)
(0.14800052 -2.4780488e-11 0)
(0.14800052 2.5955103e-11 0)
(0.14800052 -2.3369537e-11 0)
(0.14800052 2.2435337e-11 0)
(0.14800052 -2.4681773e-11 0)
(0.14800052 2.5946562e-11 0)
(0.14800052 -2.34941e-11 0)
(0.14800052 2.2159826e-11 0)
(0.14800052 -2.508159e-11 0)
(0.14800052 2.5406548e-11 0)
(0.14800052 -2.4029846e-11 0)
(0.14800052 2.1683128e-11 0)
(0.14800052 -2.5351313e-11 0)
(0.14800052 2.5394318e-11 0)
(0.14800052 -2.3692569e-11 0)
(0.14800052 2.2097828e-11 0)
(0.14800052 -2.573183e-11 0)
(0.14800052 2.3440517e-11 0)
(0.14800052 -2.8851903e-11 0)
(0.14800052 1.2758543e-11 0)
(0.14800052 -4.1054181e-11 0)
(0.14800052 4.8000711e-12 0)
(0.14800052 -5.0884071e-11 0)
(0.14800052 -9.5878927e-12 0)
(0.14800052 -5.9850912e-11 0)
(0.14800052 -5.2852354e-12 0)
(0.14800052 -2.7999762e-11 0)
(0.14800052 1.0145199e-10 0)
(0.14800052 2.4536457e-10 0)
(0.14800052 6.9825354e-10 0)
(0.14800052 1.4370462e-09 0)
(0.14800053 2.9948392e-09 0)
(0.14800053 5.9365991e-09 0)
(0.14800053 1.2074144e-08 0)
(0.14800053 2.43946e-08 0)
(0.1480005 4.6951555e-08 0)
(0.14800046 9.4242737e-08 0)
(0.14800093 2.1788054e-07 0)
(0.14800069 3.0094337e-07 0)
(0.14799641 -1.7531319e-07 0)
(0.14800444 -6.2879092e-07 0)
(0.13123059 -0.00028985624 0)
(0.13275193 -0.00018259496 0)
(0.13178286 0.00013581191 0)
(0.13191976 0.0001441005 0)
(0.13211148 4.7849038e-05 0)
(0.1321099 3.9560328e-06 0)
(0.13211501 -7.4052753e-06 0)
(0.13212713 -9.7640414e-06 0)
(0.13212836 -8.0736453e-06 0)
(0.13212655 -5.33773e-06 0)
(0.13212539 -3.237742e-06 0)
(0.13212462 -1.902243e-06 0)
(0.13212406 -1.0913747e-06 0)
(0.1321237 -6.1435299e-07 0)
(0.13212349 -3.4153067e-07 0)
(0.13212337 -1.8808101e-07 0)
(0.1321233 -1.0276661e-07 0)
(0.13212326 -5.571501e-08 0)
(0.13212323 -3.0054556e-08 0)
(0.13212322 -1.6098469e-08 0)
(0.13212321 -8.6252204e-09 0)
(0.13212321 -4.5833556e-09 0)
(0.13212321 -2.4657292e-09 0)
(0.13212321 -1.2958346e-09 0)
(0.13212321 -7.25653e-10 0)
(0.13212321 -3.8844998e-10 0)
(0.13212321 -2.5030245e-10 0)
(0.13212321 -1.3229585e-10 0)
(0.13212321 -1.0974237e-10 0)
(0.13212321 -5.5901132e-11 0)
(0.13212321 -6.7714149e-11 0)
(0.13212321 -2.9067573e-11 0)
(0.13212321 -5.1118413e-11 0)
(0.13212321 -2.1811477e-11 0)
(0.13212321 -4.7329794e-11 0)
(0.13212321 -1.4073968e-11 0)
(0.13212321 -3.895151e-11 0)
(0.13212321 -1.0272416e-11 0)
(0.13212321 -3.5347154e-11 0)
(0.13212321 -2.5442133e-12 0)
(0.13212321 -2.6632203e-11 0)
(0.13212321 7.1087961e-13 0)
(0.13212321 -2.4080702e-11 0)
(0.13212321 6.9560468e-12 0)
(0.13212321 -1.8024864e-11 0)
(0.13212321 7.9652141e-12 0)
(0.13212321 -1.8017935e-11 0)
(0.13212321 1.2122008e-11 0)
(0.13212321 -1.3890234e-11 0)
(0.13212321 1.1349934e-11 0)
(0.13212321 -1.5631503e-11 0)
(0.13212321 1.4088215e-11 0)
(0.13212321 -1.2566593e-11 0)
(0.13212321 1.2439578e-11 0)
(0.13212321 -1.4995356e-11 0)
(0.13212321 1.4618264e-11 0)
(0.13212321 -1.2279033e-11 0)
(0.13212321 1.2672589e-11 0)
(0.13212321 -1.487453e-11 0)
(0.13212321 1.4705683e-11 0)
(0.13212321 -1.2235801e-11 0)
(0.13212321 1.2689434e-11 0)
(0.13212321 -1.4887787e-11 0)
(0.13212321 1.4645194e-11 0)
(0.13212321 -1.2351379e-11 0)
(0.13212321 1.2476661e-11 0)
(0.13212321 -1.5191975e-11 0)
(0.13212321 1.420932e-11 0)
(0.13212321 -1.2867049e-11 0)
(0.13212321 1.191536e-11 0)
(0.13212321 -1.5627744e-11 0)
(0.13212321 1.3884134e-11 0)
(0.13212321 -1.2828265e-11 0)
(0.13212321 1.2275143e-11 0)
(0.13212321 -1.4949114e-11 0)
(0.13212321 1.3993346e-11 0)
(0.13212321 -1.395304e-11 0)
(0.13212321 8.3259878e-12 0)
(0.13212321 -2.2475733e-11 0)
(0.13212321 1.8346789e-12 0)
(0.13212321 -2.9948763e-11 0)
(0.13212321 -1.0932884e-11 0)
(0.13212321 -4.370358e-11 0)
(0.13212321 -2.1575155e-11 0)
(0.13212321 -5.3232928e-11 0)
(0.13212321 -2.5831867e-11 0)
(0.13212321 -2.3829309e-11 0)
(0.13212321 9.6066632e-11 0)
(0.13212321 2.8386891e-10 0)
(0.13212321 7.5529363e-10 0)
(0.13212321 1.6234143e-09 0)
(0.13212321 3.5021975e-09 0)
(0.13212322 7.676651e-09 0)
(0.13212323 1.6901101e-08 0)
(0.13212321 3.4424454e-08 0)
(0.13212323 8.4192766e-08 0)
(0.13212372 2.4130938e-07 0)
(0.1321235 3.509191e-07 0)
(0.13212007 -1.8078542e-07 0)
(0.13212675 -6.6821305e-07 0)
(0.077460667 -0.00017943224 0)
(0.077671072 -0.00015131785 0)
(0.077105727 2.0429023e-05 0)
(0.077191549 3.6244573e-05 0)
(0.07727149 -1.6613854e-06 0)
(0.077251061 -1.1687534e-05 0)
(0.07723651 -9.3125255e-06 0)
(0.07722869 -6.9072121e-06 0)
(0.077220317 -4.5940812e-06 0)
(0.07721432 -2.6881607e-06 0)
(0.077211015 -1.4958181e-06 0)
(0.077209205 -8.2427647e-07 0)
(0.077208184 -4.4939076e-07 0)
(0.077207622 -2.4218058e-07 0)
(0.077207318 -1.295702e-07 0)
(0.077207155 -6.8878111e-08 0)
(0.077207068 -3.6444818e-08 0)
(0.077207022 -1.9141692e-08 0)
(0.077206998 -1.0030702e-08 0)
(0.077206985 -5.1862177e-09 0)
(0.077206978 -2.698235e-09 0)
(0.077206975 -1.3543748e-09 0)
(0.077206973 -7.0539739e-10 0)
(0.077206971 -3.2539175e-10 0)
(0.077206971 -1.9112966e-10 0)
(0.07720697 -8.4087035e-11 0)
(0.07720697 -7.5958579e-11 0)
(0.07720697 -3.0196243e-11 0)
(0.07720697 -4.7955816e-11 0)
(0.07720697 -1.3523573e-11 0)
(0.07720697 -3.6325281e-11 0)
(0.077206969 -4.4848097e-12 0)
(0.077206969 -3.2132711e-11 0)
(0.077206969 -9.6031513e-13 0)
(0.077206969 -2.787839e-11 0)
(0.077206969 4.855666e-12 0)
(0.077206969 -2.4475103e-11 0)
(0.077206969 6.7250954e-12 0)
(0.077206969 -2.0648177e-11 0)
(0.077206969 1.1212324e-11 0)
(0.077206969 -1.833052e-11 0)
(0.077206969 1.1875288e-11 0)
(0.077206969 -1.6062371e-11 0)
(0.077206969 1.5034748e-11 0)
(0.077206969 -1.4918913e-11 0)
(0.077206969 1.4087624e-11 0)
(0.077206969 -1.3999072e-11 0)
(0.077206969 1.6129052e-11 0)
(0.077206969 -1.430292e-11 0)
(0.077206969 1.4417326e-11 0)
(0.077206969 -1.4076002e-11 0)
(0.077206969 1.6114325e-11 0)
(0.077206969 -1.4595624e-11 0)
(0.077206969 1.4267422e-11 0)
(0.077206969 -1.4407879e-11 0)
(0.077206969 1.5910196e-11 0)
(0.077206969 -1.4900526e-11 0)
(0.077206969 1.4097865e-11 0)
(0.077206969 -1.458242e-11 0)
(0.077206969 1.5780352e-11 0)
(0.077206969 -1.5024365e-11 0)
(0.077206969 1.4009403e-11 0)
(0.077206969 -1.4638904e-11 0)
(0.077206969 1.5723021e-11 0)
(0.077206969 -1.5071679e-11 0)
(0.077206969 1.3947367e-11 0)
(0.077206969 -1.4705799e-11 0)
(0.077206969 1.5630067e-11 0)
(0.077206969 -1.5158773e-11 0)
(0.077206969 1.3841538e-11 0)
(0.077206969 -1.4772993e-11 0)
(0.077206969 1.5664114e-11 0)
(0.077206969 -1.4923183e-11 0)
(0.077206969 1.4272464e-11 0)
(0.077206969 -1.4145353e-11 0)
(0.077206969 1.650057e-11 0)
(0.077206969 -1.4423716e-11 0)
(0.077206969 1.4215184e-11 0)
(0.077206969 -1.56298e-11 0)
(0.077206969 1.3484772e-11 0)
(0.077206969 -1.9300276e-11 0)
(0.077206969 7.4802335e-12 0)
(0.077206969 -2.4047157e-11 0)
(0.077206969 1.2651423e-12 0)
(0.077206969 -3.5345525e-11 0)
(0.077206969 -1.5063846e-11 0)
(0.077206969 -4.7551053e-11 0)
(0.077206969 -1.1306281e-11 0)
(0.077206969 -4.3579221e-12 0)
(0.077206969 1.291964e-10 0)
(0.07720697 3.191562e-10 0)
(0.077206971 8.5585902e-10 0)
(0.077206974 2.1574112e-09 0)