/*--------------------------------*- C++ -*----------------------------------*\
  =========                 |
  \\      /  F ield         | OpenFOAM: The Open Source CFD Toolbox
   \\    /   O peration     | Website:  https://openfoam.org
    \\  /    A nd           | Version:  6
     \\/     M anipulation  |
\*---------------------------------------------------------------------------*/
FoamFile
{
    version     2.0;
    format      ascii;
    class       volScalarField;
    location    "106";
    object      p;
}
// * * * * * * * * * * * * * * * * * * * * * * * * * * * * * * * * * * * * * //

dimensions      [0 2 -2 0 0 0 0];

internalField   nonuniform List<scalar> 
9200
(
-0.37808979
-0.36674262
-0.35664837
-0.34769859
-0.33895842
-0.33044174
-0.32222682
-0.31428114
-0.30653739
-0.2989236
-0.29136682
-0.28379798
-0.27615892
-0.26840963
-0.26053884
-0.25258186
-0.24461502
-0.23672614
-0.22994011
-0.22853882
-0.39595139
-0.38215296
-0.37011502
-0.3596454
-0.34953317
-0.33975976
-0.33039392
-0.32137238
-0.31259561
-0.30396526
-0.29538812
-0.28678199
-0.27808315
-0.26925241
-0.2602807
-0.25119297
-0.24201909
-0.23275879
-0.22409497
-0.21819348
-0.41422994
-0.39795744
-0.38402174
-0.37210273
-0.36067375
-0.34966561
-0.33912577
-0.3289525
-0.3190121
-0.30918369
-0.29936297
-0.28946786
-0.27944528
-0.26927429
-0.25896592
-0.24855885
-0.23809187
-0.22757394
-0.21740431
-0.208698
-0.43249136
-0.41376391
-0.39799584
-0.38468906
-0.37196357
-0.35968323
-0.34786634
-0.33637222
-0.32504092
-0.31374442
-0.30238806
-0.29091363
-0.27930243
-0.26757313
-0.25577504
-0.24397799
-0.23224855
-0.22062562
-0.20937664
-0.19924272
-0.45010567
-0.42902632
-0.41154262
-0.39692516
-0.38291286
-0.36929181
-0.35605106
-0.34302161
-0.33003781
-0.31699158
-0.30382764
-0.29053983
-0.27716694
-0.26378284
-0.25048302
-0.23737044
-0.22453517
-0.21203574
-0.20006036
-0.18911645
-0.46624833
-0.44302563
-0.42400195
-0.40816323
-0.39285754
-0.37779328
-0.36294267
-0.34813404
-0.33323017
-0.31817931
-0.3029984
-0.28775806
-0.27256821
-0.25756003
-0.24286768
-0.22861323
-0.21489131
-0.20175783
-0.18933876
-0.1779709
-0.47991415
-0.45487546
-0.43454912
-0.41758923
-0.40096985
-0.38433751
-0.36767544
-0.35085002
-0.33379696
-0.31656021
-0.29925716
-0.28204899
-0.2651159
-0.24863357
-0.23275444
-0.21759642
-0.2032352
-0.1897019
-0.17706336
-0.16552079
-0.48993927
-0.4635456
-0.4422273
-0.42426979
-0.40632287
-0.38800514
-0.36935346
-0.35032451
-0.33097537
-0.31148065
-0.29207549
-0.27301123
-0.25452373
-0.23680985
-0.22001435
-0.20422708
-0.18948519
-0.17578055
-0.16312205
-0.15159695
-0.49498141
-0.46776075
-0.44575043
-0.42686908
-0.40754063
-0.38741781
-0.36665114
-0.34534485
-0.32371695
-0.30208823
-0.28080501
-0.26018619
-0.24049246
-0.22191059
-0.20455136
-0.1884579
-0.1736181
-0.15998032
-0.14749945
-0.13616524
-0.49369011
-0.46610397
-0.44357088
-0.42372173
-0.40290128
-0.38088006
-0.35798763
-0.33452161
-0.31087468
-0.28749699
-0.26480873
-0.24315092
-0.22276631
-0.20379857
-0.18630412
-0.17027076
-0.15563751
-0.14231488
-0.13021103
-0.11923082
-0.26520094
-0.26987547
-0.27238399
-0.27313512
-0.27292093
-0.27192829
-0.27023867
-0.2679396
-0.26510328
-0.26178447
-0.2580272
-0.25386897
-0.24934291
-0.24447908
-0.23930574
-0.23385178
-0.2281481
-0.2222152
-0.21605211
-0.20974439
-0.26793379
-0.27219303
-0.27439478
-0.27492722
-0.27452995
-0.27338108
-0.27156018
-0.26915109
-0.26622245
-0.26282615
-0.25900384
-0.25479089
-0.25021855
-0.24531487
-0.24010552
-0.23461837
-0.22889176
-0.22294459
-0.21666954
-0.21004066
-0.27326366
-0.27671077
-0.27831448
-0.27841918
-0.27766295
-0.27620853
-0.27413192
-0.27150972
-0.26840363
-0.26485992
-0.26091539
-0.25660123
-0.25194488
-0.24697056
-0.24169911
-0.23615551
-0.23038954
-0.22441894
-0.21794458
-0.21070869
-0.28095063
-0.28323514
-0.28397325
-0.28344918
-0.28216002
-0.2802489
-0.27778788
-0.27484369
-0.27146836
-0.26770032
-0.26356952
-0.25910104
-0.25431679
-0.2492353
-0.24387057
-0.23824245
-0.23241265
-0.22640353
-0.21966956
-0.21158311
-0.29069239
-0.29152307
-0.29115955
-0.28981816
-0.28782709
-0.28530867
-0.28233179
-0.27895188
-0.27520957
-0.27113403
-0.26674698
-0.26206521
-0.2571031
-0.25187227
-0.2463786
-0.24063357
-0.23470686
-0.22863404
-0.22161039
-0.21249347
-0.30217511
-0.30132234
-0.29965592
-0.29732517
-0.29447252
-0.29120089
-0.28757821
-0.28364889
-0.27944157
-0.27497377
-0.27025639
-0.26529696
-0.26010108
-0.25467191
-0.2490062
-0.24310412
-0.23703537
-0.23085491
-0.22352692
-0.21327277
-0.31511981
-0.31240791
-0.30927166
-0.30580052
-0.30194248
-0.29778424
-0.29339663
-0.28881266
-0.28404628
-0.27910251
-0.27398075
-0.2686773
-0.26318711
-0.25750382
-0.25161509
-0.24550927
-0.23924888
-0.23291151
-0.22529338
-0.21391064
-0.32931048
-0.32460471
-0.31986489
-0.31513031
-0.31015034
-0.30499838
-0.29974849
-0.29442147
-0.28901652
-0.28352424
-0.27792969
-0.27221487
-0.26636114
-0.26035003
-0.25415955
-0.24776912
-0.24123851
-0.23469127
-0.2268749
-0.2145952
-0.34459405
-0.33778035
-0.33132519
-0.32522788
-0.31903173
-0.31279557
-0.30659857
-0.30044883
-0.29432791
-0.2882088
-0.28205863
-0.27584096
-0.26951804
-0.26305109
-0.25639569
-0.24950395
-0.24240017
-0.23519053
-0.22661777
-0.21317948
-0.36087162
-0.35182708
-0.34354038
-0.33597575
-0.32845706
-0.32102831
-0.31377375
-0.30668643
-0.2997278
-0.29285159
-0.28600664
-0.27913978
-0.27219868
-0.26513187
-0.25788353
-0.25038922
-0.24259183
-0.23428473
-0.22381712
-0.20814756
-0.20259273
-0.19364322
-0.18468871
-0.1757932
-0.16690298
-0.15805975
-0.14931702
-0.14070985
-0.13226754
-0.1240187
-0.11598913
-0.10820102
-0.10067353
-0.093423002
-0.08646304
-0.079804529
-0.073455766
-0.067422555
-0.061708309
-0.056314158
-0.051239074
-0.046480008
-0.042032043
-0.037888558
-0.034041406
-0.030481098
-0.027197002
-0.024177529
-0.021410338
-0.018882519
-0.016580782
-0.014491634
-0.012601541
-0.010897082
-0.0093650968
-0.0079928091
-0.0067679605
-0.0056789073
-0.0047148025
-0.0038655093
-0.003122443
-0.0024765224
-0.0019255287
-0.0014524822
-0.0010937649
-0.00073736392
-0.00072860626
-0.00010461637
-0.0017510137
0.002485771
-0.20360301
-0.19425621
-0.18519264
-0.17631148
-0.16740324
-0.15852982
-0.14976267
-0.14113324
-0.13266836
-0.12439719
-0.11634582
-0.10853633
-0.10098784
-0.093716796
-0.086736849
-0.08005895
-0.073691459
-0.067640243
-0.061908764
-0.056498196
-0.051407542
-0.046633774
-0.042171988
-0.038015564
-0.034156348
-0.030584839
-0.027290382
-0.024261362
-0.021485407
-0.018949572
-0.016640528
-0.014544742
-0.012648638
-0.010938753
-0.0094018821
-0.0080252074
-0.006796428
-0.0057038585
-0.0047366116
-0.0038845108
-0.0031389315
-0.0024907562
-0.0019377085
-0.0014628172
-0.0011021827
-0.00074444695
-0.00073215641
-0.00011059154
-0.0017365229
0.0024569958
-0.20572218
-0.19552466
-0.18624365
-0.17743119
-0.16849937
-0.15956527
-0.1507505
-0.14207706
-0.13356515
-0.12524608
-0.11714716
-0.10929037
-0.10169493
-0.09437762
-0.087352385
-0.080630391
-0.074220207
-0.068127885
-0.062357042
-0.056908971
-0.051782767
-0.046975465
-0.042482193
-0.03829634
-0.034409741
-0.03081286
-0.027494992
-0.024444458
-0.02164881
-0.019095016
-0.016769656
-0.014659097
-0.012749664
-0.01102779
-0.0094801686
-0.0080938786
-0.0068565196
-0.0057563086
-0.0047822638
-0.0039241169
-0.0031731526
-0.0025201686
-0.0019627697
-0.001483979
-0.0011193653
-0.00075877918
-0.00073943827
-0.00012239552
-0.0017080761
0.0024000606
-0.20879143
-0.19721709
-0.18761509
-0.17900165
-0.17008046
-0.16106967
-0.15220077
-0.1434784
-0.13490746
-0.12652436
-0.11836013
-0.11043677
-0.10277383
-0.09538891
-0.088296668
-0.081508793
-0.075034313
-0.068879688
-0.063048869
-0.057543417
-0.052362631
-0.047503694
-0.04296183
-0.038730478
-0.034801479
-0.03116527
-0.027811084
-0.024727159
-0.021900936
-0.01931926
-0.016968572
-0.01483509
-0.012904984
-0.011164529
-0.0096002575
-0.0081990906
-0.0069484711
-0.0058364634
-0.0048519375
-0.0039844812
-0.0032252379
-0.0025648716
-0.0020008067
-0.001516047
-0.0011453788
-0.00078040949
-0.00075053588
-0.00013996608
-0.0016664024
0.002316192
-0.21258402
-0.1990629
-0.18903767
-0.18082509
-0.17199993
-0.16291513
-0.1540032
-0.14524821
-0.13662369
-0.12817323
-0.11993638
-0.11193626
-0.10419285
-0.096725205
-0.089549377
-0.082678084
-0.076121199
-0.06988592
-0.063976821
-0.058395962
-0.053143037
-0.048215527
-0.043608868
-0.039316636
-0.035330742
-0.031641631
-0.028238498
-0.025109495
-0.022241943
-0.01962254
-0.017237554
-0.015073015
-0.013114892
-0.01134925
-0.0097624116
-0.0083410837
-0.0070724991
-0.0059445158
-0.0049458033
-0.0040657536
-0.0032953181
-0.0026249787
-0.002051917
-0.0015591045
-0.0011802975
-0.00080938966
-0.00076557533
-0.00016318722
-0.0016126263
0.0022072804
-0.21675253
-0.20078153
-0.19024219
-0.18266825
-0.17408536
-0.1649582
-0.1560256
-0.14727245
-0.13862106
-0.13011663
-0.12181251
-0.11373631
-0.10590899
-0.098351507
-0.091082128
-0.084115367
-0.077462512
-0.071131967
-0.065129334
-0.059457518
-0.05411689
-0.049105463
-0.044419074
-0.040051582
-0.035995077
-0.032240098
-0.028775851
-0.025590438
-0.022671072
-0.020004297
-0.017576194
-0.015372575
-0.013379171
-0.011581799
-0.0099665199
-0.0085197802
-0.0072285509
-0.0060804326
-0.0050638428
-0.0041679274
-0.0033833958
-0.0027005
-0.0021161162
-0.0016131717
-0.0012241502
-0.00084573717
-0.00078468553
-0.00019189206
-0.0015481657
0.0020757858
-0.22089929
-0.20219135
-0.19101688
-0.18425336
-0.17613618
-0.16707185
-0.15815285
-0.14943883
-0.14080364
-0.13227664
-0.12392359
-0.11578197
-0.10787609
-0.10022924
-0.092862654
-0.085793592
-0.079035557
-0.072598772
-0.066490382
-0.060714587
-0.055272807
-0.050163886
-0.04538431
-0.040928416
-0.03678863
-0.032955693
-0.029418911
-0.026166385
-0.023185254
-0.02046192
-0.01798227
-0.015731884
-0.013696226
-0.011860828
-0.010211451
-0.0087342354
-0.0074158435
-0.0062435703
-0.0052055332
-0.0042905838
-0.0034891413
-0.0027911821
-0.0021932157
-0.0016781165
-0.0012768581
-0.0008894039
-0.00080797599
-0.00022590914
-0.001474642
0.0019246024
-0.22476334
-0.20368796
-0.19158609
-0.18539299
-0.1779381
-0.16916863
-0.1603413
-0.15169112
-0.14310943
-0.13459759
-0.1262204
-0.118028
-0.11005243
-0.10232054
-0.094856873
-0.087682235
-0.080813127
-0.074262214
-0.068038691
-0.062148484
-0.056594436
-0.051376539
-0.046492183
-0.041936397
-0.037702108
-0.0337804
-0.030160772
-0.026831403
-0.023779401
-0.020991054
-0.018452068
-0.01614778
-0.014063377
-0.012184077
-0.01049531
-0.0089828721
-0.0076330762
-0.0064328686
-0.0053700228
-0.0044330517
-0.0036120389
-0.0028966432
-0.0022829468
-0.0017537675
-0.0013383348
-0.00094036135
-0.00083560333
-0.00026511669
-0.0013938151
0.0017570246
-0.22600227
-0.20551586
-0.19264527
-0.18602336
-0.17905594
-0.17086818
-0.16231738
-0.15379637
-0.14532175
-0.13688701
-0.12853978
-0.12033794
-0.11232464
-0.10453255
-0.096990187
-0.089722458
-0.082749727
-0.076087933
-0.069749054
-0.063741404
-0.058069853
-0.052736078
-0.047738837
-0.043074252
-0.038736093
-0.034716061
-0.031004081
-0.027588584
-0.024456789
-0.021594971
-0.018988718
-0.016623174
-0.014483263
-0.012553894
-0.010820152
-0.0092674643
-0.0078817635
-0.0066496087
-0.0055583868
-0.0045962269
-0.0037528298
-0.0030174899
-0.0023858016
-0.0018405108
-0.001408896
-0.00099879288
-0.00086791835
-0.00030919149
-0.0013078151
0.001577335
-0.21614096
-0.20476145
-0.19376266
-0.18567443
-0.17861773
-0.17120432
-0.16325986
-0.15510484
-0.14691819
-0.13872598
-0.13055593
-0.12246553
-0.11451028
-0.10673313
-0.099169914
-0.091852191
-0.084806636
-0.078054718
-0.071613141
-0.065494262
-0.059706381
-0.054254046
-0.049138377
-0.044357407
-0.039906414
-0.035778261
-0.031963725
-0.028451827
-0.02523015
-0.022285146
-0.019602422
-0.017167011
-0.014963629
-0.012976897
-0.011191553
-0.0095926395
-0.0081656763
-0.0068967948
-0.0057729495
-0.0047818344
-0.0039127161
-0.0031544691
-0.0025021423
-0.0019383642
-0.0014883384
-0.0010641376
-0.00090469997
-0.00035642426
-0.0012191948
0.0013910608
-0.19400304
-0.19870857
-0.19343443
-0.18452948
-0.17702612
-0.17001748
-0.16251635
-0.15465825
-0.14670904
-0.13873193
-0.13074647
-0.12280558
-0.11496855
-0.10728271
-0.09978709
-0.092516177
-0.085499615
-0.078761668
-0.072321558
-0.066193903
-0.060389032
-0.054913281
-0.049769336
-0.044956583
-0.040471463
-0.036307818
-0.032457242
-0.028909426
-0.025652491
-0.022673307
-0.0199578
-0.01749123
-0.015258463
-0.013244203
-0.01143322
-0.0098105387
-0.0083616256
-0.0070725279
-0.0059300879
-0.0049218719
-0.0040369677
-0.0032641355
-0.0025979569
-0.0020215064
-0.0015571902
-0.0011234814
-0.00093635028
-0.00040359285
-0.0011284633
0.0012061403
-0.18345276
-0.18927196
-0.18579818
-0.17705906
-0.16985561
-0.1635988
-0.15689825
-0.14975415
-0.14246241
-0.13509807
-0.12767089
-0.12022945
-0.11283547
-0.10554001
-0.098385635
-0.091410668
-0.08464879
-0.078128271
-0.07187217
-0.065898747
-0.060221745
-0.054850675
-0.049791152
-0.045045242
-0.040611824
-0.036486947
-0.032664188
-0.029135007
-0.025889096
-0.022914706
-0.020198968
-0.017728189
-0.015488129
-0.013464256
-0.011641974
-0.010006839
-0.0085447458
-0.0072420825
-0.0060859475
-0.0050641097
-0.0041657273
-0.0033797445
-0.0027002913
-0.0021114815
-0.001631938
-0.0011892767
-0.00097017789
-0.00045885796
-0.001026746
0.001006633
-0.17471298
-0.17793273
-0.1756549
-0.168634
-0.16228111
-0.15671831
-0.15078463
-0.14437067
-0.13774306
-0.13099692
-0.12414414
-0.11722711
-0.11030633
-0.10343471
-0.096656913
-0.090013641
-0.083541488
-0.077271939
-0.071231348
-0.065441257
-0.059918629
-0.054676079
-0.049722168
-0.04506173
-0.040696218
-0.036624052
-0.032840976
-0.029340415
-0.026113824
-0.023151027
-0.020440544
-0.0179699
-0.015725908
-0.01369494
-0.011863172
-0.010216799
-0.0087422441
-0.0074263259
-0.0062564693
-0.005220707
-0.0043083086
-0.0035084522
-0.0028147878
-0.0022126032
-0.0017163546
-0.0012637432
-0.0010093555
-0.00052103028
-0.00091719706
0.00078795078
-0.16503305
-0.16564428
-0.16381208
-0.15886733
-0.15374449
-0.14892441
-0.14378194
-0.13817978
-0.13229531
-0.12622936
-0.12000959
-0.11367646
-0.1072871
-0.10089504
-0.094546799
-0.088285073
-0.082148946
-0.07617287
-0.07038639
-0.06481433
-0.059476956
-0.054390137
-0.049565583
-0.045011134
-0.040731073
-0.036726461
-0.032995478
-0.029533779
-0.026334837
-0.023390289
-0.020690268
-0.018223721
-0.015978702
-0.013942657
-0.012102676
-0.010445728
-0.0089588762
-0.0076294628
-0.00644532
-0.0053948088
-0.0044673603
-0.0036524217
-0.0029431836
-0.0023261118
-0.00181147
-0.0013470356
-0.0010550972
-0.00058749683
-0.00080742735
0.00056024211
-0.1544619
-0.15319356
-0.1513835
-0.14815364
-0.14432409
-0.14030895
-0.13596358
-0.13120547
-0.12611805
-0.12078436
-0.11524757
-0.10955069
-0.10374671
-0.097888026
-0.092022087
-0.086192844
-0.080441129
-0.074803789
-0.069313201
-0.063997258
-0.058879438
-0.053978887
-0.049310568
-0.044885497
-0.040711005
-0.03679104
-0.033126487
-0.029715498
-0.026553838
-0.02363522
-0.02095164
-0.0184937
-0.016250912
-0.014211988
-0.012365111
-0.010698176
-0.0091990221
-0.0078556305
-0.0066563379
-0.0055899121
-0.0046460113
-0.0038143889
-0.0030878303
-0.0024539217
-0.0019189115
-0.0014401373
-0.0011088657
-0.00065756885
-0.000703493
0.00033167224
-0.14267339
-0.14061355
-0.13891815
-0.1369626
-0.13430394
-0.13112486
-0.12756668
-0.12363327
-0.11934673
-0.11476289
-0.10993264
-0.1049007
-0.099715492
-0.094427054
-0.08908266
-0.083726486
-0.078400002
-0.073141462
-0.067985309
-0.062961935
-0.058097612
-0.053414475
-0.048930594
-0.04466011
-0.040613438
-0.036797517
-0.033216082
-0.029869974
-0.026757451
-0.023874523
-0.021215269
-0.018772164
-0.016536386
-0.014498114
-0.0126468
-0.010971434
-0.0094607784
-0.0081035825
-0.0068888004
-0.0058056991
-0.0048442462
-0.0039945454
-0.0032490616
-0.0025964091
-0.0020391547
-0.0015433186
-0.0011716077
-0.00073074468
-0.00061139411
0.00011095901
-0.12997753
-0.12804711
-0.12669989
-0.12565642
-0.1239614
-0.12159203
-0.11879422
-0.11563952
-0.11212479
-0.10827956
-0.10415379
-0.099793847
-0.095242701
-0.09054528
-0.085747494
-0.08089299
-0.07602288
-0.071175683
-0.0663869
-0.061688607
-0.057109212
-0.052673331
-0.04840175
-0.04431148
-0.040415871
-0.036724788
-0.033244834
-0.029979604
-0.026929969
-0.024094376
-0.021469157
-0.01904884
-0.016826449
-0.014793808
-0.012941817
-0.011260721
-0.009740358
-0.0083703811
-0.0071404837
-0.0060405346
-0.0050609057
-0.0041921031
-0.0034263815
-0.0027532693
-0.0021721182
-0.0016564666
-0.0012439711
-0.00080656006
-0.00053706818
-9.2522116e-05
-0.11709009
-0.11573998
-0.11488151
-0.11449384
-0.11355439
-0.11192028
-0.10983328
-0.10739579
-0.10460109
-0.10146098
-0.098017567
-0.094315183
-0.090393664
-0.086292314
-0.082052223
-0.07771531
-0.073321704
-0.06890925
-0.06451343
-0.060167031
-0.055899775
-0.051738062
-0.047704837
-0.043819534
-0.040098108
-0.03655313
-0.033193931
-0.030026807
-0.027055245
-0.024280187
-0.021700309
-0.019312311
-0.017111205
-0.015090607
-0.013243018
-0.011560089
-0.010032877
-0.0086520749
-0.0074082406
-0.006291953
-0.005294092
-0.004405627
-0.0036187318
-0.0029237297
-0.0023173176
-0.001779219
-0.0013263076
-0.00088475765
-0.00048557162
-0.00026984475
-0.10455416
-0.10387067
-0.10352812
-0.10363449
-0.10328311
-0.10228633
-0.10084096
-0.09905072
-0.096912151
-0.094427552
-0.09162925
-0.088556224
-0.085243814
-0.081726989
-0.07804224
-0.07422711
-0.070319333
-0.066355384
-0.062369888
-0.058395391
-0.054462031
-0.050597207
-0.046825334
-0.043167695
-0.039642383
-0.036264304
-0.03304525
-0.02999403
-0.027116637
-0.024416463
-0.021894536
-0.019549775
-0.01737926
-0.015378502
-0.013541719
-0.011862095
-0.010332032
-0.0089433909
-0.0076877127
-0.0065563952
-0.0055409343
-0.004632831
-0.0038243191
-0.0031064118
-0.0024737555
-0.0019108965
-0.0014185684
-0.00096531912
-0.00046032589
-0.00041380168
-0.092655326
-0.092557947
-0.09268386
-0.093177889
-0.093287871
-0.09282597
-0.091941272
-0.090723744
-0.089172206
-0.087284201
-0.085082974
-0.082600477
-0.079866788
-0.076911777
-0.073767482
-0.070467308
-0.067045027
-0.063534451
-0.05996859
-0.056378979
-0.052795334
-0.049245242
-0.045753858
-0.042343666
-0.039034336
-0.035842643
-0.032782461
-0.029864818
-0.027098003
-0.024487712
-0.022037244
-0.019747708
-0.017618264
-0.015646368
-0.013828026
-0.012158042
-0.01063027
-0.0092378394
-0.0079733852
-0.0068292264
-0.0057975797
-0.0048705515
-0.0040405804
-0.0032992897
-0.0026398804
-0.0020504537
-0.0015202258
-0.0010483497
-0.00046251516
-0.00052001857
-0.081533939
-0.08189259
-0.082400953
-0.083197587
-0.08366842
-0.083643644
-0.083234273
-0.08251243
-0.081476517
-0.080121161
-0.07846196
-0.076523503
-0.074330101
-0.071906354
-0.069279191
-0.066477646
-0.063531626
-0.06047133
-0.057327081
-0.054128656
-0.050904635
-0.047682045
-0.044486051
-0.04133967
-0.038263545
-0.035275791
-0.032391913
-0.029624788
-0.026984698
-0.024479422
-0.022114367
-0.019892731
-0.017815701
-0.015882665
-0.014091439
-0.012438499
-0.010919213
-0.0095280644
-0.008258868
-0.0071049548
-0.00605936
-0.0051148702
-0.0042642701
-0.0034997484
-0.0028136255
-0.0021964775
-0.0016302501
-0.0011339378
-0.00049081264
-0.00058780777
-0.071250454
-0.071937068
-0.072731813
-0.073753489
-0.074499495
-0.074821862
-0.07480348
-0.074499882
-0.073907378
-0.073018179
-0.071841555
-0.07039517
-0.068697466
-0.066767723
-0.064627683
-0.062301512
-0.059814924
-0.057194435
-0.054467023
-0.051659853
-0.048799679
-0.045912304
-0.043022224
-0.040152327
-0.037323614
-0.034554982
-0.03186307
-0.029262174
-0.026764212
-0.024378753
-0.022113082
-0.019972321
-0.017959569
-0.016076077
-0.014321445
-0.012693825
-0.01119013
-0.0098062481
-0.0085372396
-0.0073775202
-0.0063210285
-0.0053613048
-0.0044916117
-0.0037046934
-0.0029924888
-0.0023472071
-0.0017471197
-0.0012219754
-0.00054146357
-0.00062044278
-0.061816788
-0.062724167
-0.06371661
-0.064892312
-0.065838057
-0.066426364
-0.066719259
-0.066758536
-0.066538052
-0.066047873
-0.065292043
-0.064282097
-0.063030901
-0.061552568
-0.059863752
-0.057983703
-0.055933595
-0.05373595
-0.051414217
-0.048992423
-0.046494816
-0.04394535
-0.041367237
-0.03878261
-0.036212224
-0.033675186
-0.031188749
-0.028768162
-0.026426572
-0.024174991
-0.022022304
-0.019975328
-0.018038905
-0.016216032
-0.014508015
-0.012914644
-0.011434373
-0.01006451
-0.0088014032
-0.0076406055
-0.0065770286
-0.0056050346
-0.0047184828
-0.0039106951
-0.0031736441
-0.0025005815
-0.001868878
-0.00131203
-0.00060883022
-0.0006247323
-0.053218135
-0.054262129
-0.055377762
-0.05664553
-0.057725324
-0.058507844
-0.059039303
-0.059350605
-0.059433563
-0.059276549
-0.058879394
-0.058248436
-0.057391562
-0.056318098
-0.055039896
-0.053571447
-0.051929378
-0.050131999
-0.048198969
-0.046150946
-0.044009217
-0.041795327
-0.039530646
-0.037235986
-0.034931276
-0.032635275
-0.030365318
-0.028137116
-0.025964605
-0.023859855
-0.021833019
-0.019892333
-0.018044164
-0.016293086
-0.014641991
-0.013092225
-0.01164374
-0.010295253
-0.009044409
-0.0078879316
-0.0068217581
-0.0058411323
-0.0049406137
-0.0041141481
-0.0033540682
-0.0026543057
-0.0019932303
-0.001403271
-0.0006862741
-0.00060982106
-0.045423701
-0.046540025
-0.047719607
-0.04902843
-0.050187022
-0.051102162
-0.051808
-0.052326997
-0.052649616
-0.052763152
-0.052664209
-0.052354924
-0.051838967
-0.051121464
-0.050209931
-0.049114441
-0.047847272
-0.046422567
-0.044856075
-0.043164886
-0.041367089
-0.03948143
-0.037526961
-0.035522672
-0.03348715
-0.031438274
-0.029392938
-0.02736682
-0.025374183
-0.023427734
-0.021538524
-0.019715894
-0.017967467
-0.01629918
-0.014715345
-0.013218743
-0.011810741
-0.010491417
-0.0092596991
-0.0081134901
-0.0070497861
-0.0060647617
-0.0051537626
-0.0043114198
-0.0035306665
-0.0028059364
-0.0021176833
-0.0014945031
-0.00076723942
-0.0005854936
-0.038392102
-0.039532955
-0.040731379
-0.042041499
-0.043234333
-0.044230913
-0.045056286
-0.045726502
-0.046231383
-0.046557799
-0.046700083
-0.046657159
-0.046429328
-0.046018225
-0.04542764
-0.044663727
-0.043734784
-0.042651016
-0.041424364
-0.040068301
-0.038597583
-0.037027938
-0.035375772
-0.033657847
-0.031890963
-0.030091643
-0.028275857
-0.026458764
-0.024654489
-0.022875942
-0.021134672
-0.019440771
-0.017802813
-0.016227838
-0.014721367
-0.013287456
-0.011928763
-0.010646648
-0.0094412723
-0.0083117031
-0.0072560065
-0.0062713222
-0.0053538499
-0.0044989699
-0.0037003802
-0.0029529709
-0.0022397007
-0.0015842662
-0.00084622951
-0.00056036473
-0.032075904
-0.033206991
-0.034391312
-0.035673282
-0.036865933
-0.037902895
-0.038802444
-0.039575877
-0.040212984
-0.040700803
-0.04103226
-0.041203996
-0.041213791
-0.04106055
-0.040745027
-0.040270068
-0.03964049
-0.038862947
-0.037945827
-0.036899132
-0.035734292
-0.03446394
-0.033101654
-0.031661692
-0.030158721
-0.028607519
-0.027022703
-0.025418468
-0.023808356
-0.022205045
-0.020620172
-0.019064203
-0.017546322
-0.016074379
-0.014654855
-0.013292872
-0.011992222
-0.010755427
-0.0095838007
-0.0084775294
-0.0074357365
-0.0064565414
-0.0055370433
-0.0046734308
-0.0038602666
-0.0030929327
-0.0023568541
-0.0016709877
-0.00091944967
-0.00054050092
-0.026425051
-0.027522909
-0.028670225
-0.029903443
-0.03107052
-0.032116132
-0.033053588
-0.033890729
-0.034617789
-0.035222445
-0.035696947
-0.036036473
-0.036237068
-0.036295652
-0.036210655
-0.035982271
-0.035612425
-0.035104709
-0.034464352
-0.033698163
-0.032814421
-0.031822717
-0.030733766
-0.029559193
-0.028311302
-0.027002835
-0.025646713
-0.024255791
-0.02284262
-0.021419239
-0.019996972
-0.01858627
-0.017196577
-0.015836226
-0.014512375
-0.013230973
-0.011996747
-0.010813223
-0.009682754
-0.0086065666
-0.0075848001
-0.0066165443
-0.0056998189
-0.0048316631
-0.0040075559
-0.0032234447
-0.0024669342
-0.0017531228
-0.00098492857
-0.00052882779
-0.021389166
-0.02243884
-0.023534334
-0.024705498
-0.025829325
-0.026860102
-0.027807507
-0.028676919
-0.029459332
-0.030143402
-0.030721278
-0.031187348
-0.031536607
-0.031764666
-0.031868304
-0.031845721
-0.031696561
-0.031421908
-0.031024307
-0.030507764
-0.029877702
-0.029140866
-0.028305199
-0.027379691
-0.026374199
-0.025299247
-0.024165821
-0.022985137
-0.021768426
-0.020526722
-0.019270665
-0.018010323
-0.016755039
-0.015513297
-0.014292628
-0.013099538
-0.011939458
-0.010816727
-0.0097345901
-0.0086952019
-0.0076996456
-0.0067479434
-0.0058390287
-0.0049708118
-0.0041397028
-0.0033422945
-0.0025680149
-0.0018292599
-0.0010421764
-0.00052543694
-0.016919433
-0.017912507
-0.018947694
-0.020049345
-0.021118612
-0.022118089
-0.023054796
-0.023932366
-0.024742746
-0.025475774
-0.026123908
-0.026681276
-0.027142371
-0.027502071
-0.027756099
-0.02790127
-0.02793554
-0.027858047
-0.027669169
-0.027370567
-0.026965185
-0.026457222
-0.025852061
-0.025156176
-0.024377009
-0.02352282
-0.02260252
-0.021625493
-0.020601397
-0.019539972
-0.018450853
-0.017343391
-0.016226488
-0.015108453
-0.01399688
-0.012898545
-0.011819333
-0.010764179
-0.0097370353
-0.0087408467
-0.0077775353
-0.0068479888
-0.0059520176
-0.0050883973
-0.0042544574
-0.0034475047
-0.0026584759
-0.0018981748
-0.0010915679
-0.00052852738
-0.012969661
-0.013902633
-0.014873893
-0.01590314
-0.016911665
-0.017869207
-0.018780815
-0.019648881
-0.020466381
-0.021224427
-0.021916055
-0.022535507
-0.023077192
-0.023535709
-0.023906223
-0.024184684
-0.024367901
-0.024453598
-0.024440498
-0.024328391
-0.024118178
-0.023811877
-0.023412609
-0.022924552
-0.022352872
-0.021703625
-0.020983634
-0.020200353
-0.019361714
-0.018475956
-0.017551458
-0.016596573
-0.01561947
-0.014627976
-0.01362945
-0.012630656
-0.011637666
-0.010655781
-0.0096894565
-0.0087422602
-0.0078168214
-0.006914796
-0.0060368074
-0.0051824621
-0.0043499784
-0.0035374226
-0.0027370153
-0.0019588552
-0.0011337496
-0.00053554233
-0.0094978417
-0.010370744
-0.01127803
-0.0122354
-0.013180965
-0.014090584
-0.014967821
-0.015814167
-0.01662362
-0.017388566
-0.018102769
-0.018760828
-0.019357363
-0.019887024
-0.020344801
-0.020726208
-0.021027358
-0.021245036
-0.02137678
-0.021420976
-0.021376915
-0.021244836
-0.021025948
-0.020722425
-0.020337383
-0.019874826
-0.019339572
-0.018737158
-0.01807373
-0.017355911
-0.016590657
-0.015785115
-0.014946477
-0.014081832
-0.013198034
-0.012301569
-0.011398443
-0.010494079
-0.0095932268
-0.0086998901
-0.0078172518
-0.0069476155
-0.0060923261
-0.0052517626
-0.0044249835
-0.0036108346
-0.0028026794
-0.002010526
-0.0011692653
-0.00054407202
-0.0064659789
-0.0072814767
-0.0081274422
-0.0090161038
-0.0098996419
-0.01075913
-0.011596984
-0.012414017
-0.013205186
-0.013964084
-0.01468526
-0.015363807
-0.015994733
-0.016572968
-0.017093599
-0.017552026
-0.017944029
-0.018265839
-0.018514225
-0.018686585
-0.018781013
-0.01879637
-0.018732322
-0.018589369
-0.018368859
-0.018072968
-0.017704677
-0.017267708
-0.016766457
-0.016205904
-0.015591505
-0.014929072
-0.014224653
-0.013484399
-0.012714438
-0.011920747
-0.011109032
-0.010284614
-0.0094523259
-0.0086164153
-0.0077804531
-0.0069472514
-0.0061187656
-0.0052960648
-0.0044789847
-0.003667141
-0.0028549553
-0.0020527128
-0.0011984713
-0.00055233379
-0.0038418662
-0.0046041654
-0.005393134
-0.0062179298
-0.0070424938
-0.0078523335
-0.0086489541
-0.0094326382
-0.010199199
-0.010943331
-0.011660353
-0.012345908
-0.012995488
-0.013604428
-0.014168091
-0.014681985
-0.015141825
-0.015543591
-0.015883614
-0.016158654
-0.016365979
-0.016503435
-0.016569504
-0.016563351
-0.016484861
-0.016334657
-0.016114099
-0.015825267
-0.015470926
-0.015054472
-0.014579864
-0.014051534
-0.013474294
-0.012853226
-0.012193573
-0.01150062
-0.01077958
-0.010035473
-0.0092730205
-0.0084965301
-0.0077097937
-0.0069159843
-0.006117544
-0.0053161339
-0.0045122863
-0.0037063531
-0.0028937486
-0.0020852224
-0.0012215568
-0.00055921716
-0.0015998525
-0.0023147554
-0.0030526796
-0.0038201565
-0.0045908939
-0.0053541139
-0.0061105826
-0.0068601503
-0.0075993683
-0.0083238957
-0.0090297652
-0.0097131648
-0.01037009
-0.010996341
-0.011587649
-0.012139769
-0.012648526
-0.01310987
-0.01351994
-0.013875144
-0.014172224
-0.014408331
-0.014581086
-0.014688642
-0.014729732
-0.01470371
-0.014610577
-0.014450991
-0.014226265
-0.013938344
-0.013589769
-0.013183631
-0.012723496
-0.012213328
-0.011657396
-0.011060178
-0.010426254
-0.0097601922
-0.0090664397
-0.0083492059
-0.0076123485
-0.006859259
-0.0060927388
-0.0053149289
-0.0045269687
-0.0037298819
-0.0029200113
-0.0021086288
-0.0012390221
-0.00056435491
0.00028417545
-0.00038915181
-0.0010822412
-0.0017992466
-0.0025219329
-0.0032426311
-0.0039615057
-0.0046780405
-0.0053893992
-0.0060920612
-0.0067826853
-0.00745796
-0.0081143626
-0.0087481539
-0.0093554661
-0.0099323665
-0.010474894
-0.010979104
-0.011441117
-0.01185719
-0.012223771
-0.012537573
-0.012795629
-0.012995361
-0.013134637
-0.013211819
-0.013225815
-0.013176103
-0.013062758
-0.012886457
-0.012648473
-0.012350655
-0.011995383
-0.011585521
-0.011124349
-0.010615486
-0.010062799
-0.0094703016
-0.0088420496
-0.0081820263
-0.0074940239
-0.0067815238
-0.0060475614
-0.0052946476
-0.0045244235
-0.0037385065
-0.0029340793
-0.0021229222
-0.0012506803
-0.00056725204
0.0018073518
0.0011678029
0.00051153029
-0.00016386868
-0.00084657895
-0.0015313767
-0.00221793
-0.0029054253
-0.0035915165
-0.0042733474
-0.0049480946
-0.0056128735
-0.0062645829
-0.0068999009
-0.0075153389
-0.008107285
-0.0086720305
-0.0092058035
-0.0097048112
-0.010165291
-0.010583565
-0.010956096
-0.011279551
-0.011550857
-0.011767267
-0.011926418
-0.012026382
-0.012065716
-0.012043502
-0.011959373
-0.011813529
-0.011606743
-0.01134035
-0.01101622
-0.010636714
-0.010204627
-0.0097231171
-0.0091956193
-0.0086257493
-0.0080171947
-0.0073735981
-0.0066984352
-0.005994875
-0.0052656926
-0.0045129294
-0.0037386955
-0.0029409109
-0.0021317882
-0.0012591355
-0.00056922206
0.0030104818
0.0023987089
0.00177257
0.0011312894
0.00048165595
-0.00017306533
-0.00083215734
-0.0014945558
-0.0021582854
-0.0028210079
-0.0034803104
-0.0041336517
-0.0047782769
-0.0054112135
-0.0060293014
-0.0066292197
-0.0072075053
-0.0077605787
-0.0082847767
-0.0087763932
-0.0092317237
-0.0096471157