/*--------------------------------*- C++ -*----------------------------------*\
  =========                 |
  \\      /  F ield         | OpenFOAM: The Open Source CFD Toolbox
   \\    /   O peration     | Website:  https://openfoam.org
    \\  /    A nd           | Version:  6
     \\/     M anipulation  |
\*---------------------------------------------------------------------------*/
FoamFile
{
    version     2.0;
    format      ascii;
    class       volScalarField;
    location    "172";
    object      pPrime2Mean;
}
// * * * * * * * * * * * * * * * * * * * * * * * * * * * * * * * * * * * * * //

dimensions      [0 4 -4 0 0 0 0];

internalField   nonuniform List<scalar> 
9200
(
0.065316426
0.054138561
0.044675369
0.038515274
0.033598835
0.029455457
0.025880506
0.022769654
0.020053463
0.01767632
0.015592152
0.01376234
0.01215427
0.010740235
0.0094965796
0.00840308
0.0074426189
0.0066009242
0.0058674554
0.0052285782
0.05295628
0.043808815
0.036159451
0.031132258
0.027099613
0.023691244
0.020746366
0.018182984
0.015945872
0.013990499
0.012279674
0.010781926
0.0094704039
0.0083220228
0.0073168194
0.0064374868
0.0056691255
0.004998904
0.0044149124
0.0039001889
0.04136694
0.034172238
0.028226208
0.024265802
0.021063614
0.018344172
0.015988698
0.013936786
0.012147174
0.01058609
0.0092247671
0.0080383251
0.0070050367
0.0061057887
0.0053236975
0.0046438548
0.0040531784
0.0035401319
0.0030931537
0.0026970639
0.030870029
0.025488712
0.021084234
0.01809403
0.015646149
0.01355134
0.011729803
0.010141382
0.0087579813
0.0075557167
0.006513311
0.0056115302
0.004832904
0.0041615744
0.0035832294
0.0030850781
0.0026558161
0.0022854348
0.001964063
0.0016802067
0.021755333
0.017991841
0.014925604
0.012782771
0.010993383
0.0094433541
0.0080877013
0.0069045085
0.005877425
0.0049910305
0.004230174
0.0035800672
0.0030265452
0.0025563483
0.0021573674
0.0018188072
0.0015312332
0.0012864553
0.0010768923
0.00089483865
0.014278238
0.011885182
0.0099206799
0.008480328
0.0072370079
0.0061388761
0.0051704995
0.0043254333
0.0035969832
0.0029762837
0.0024526701
0.0020145227
0.0016500995
0.001348211
0.0010986898
0.00089264311
0.00072250352
0.00058192948
0.00046554051
0.00036858855
0.0086522806
0.0073373685
0.0062143256
0.0053142566
0.0044913724
0.0037418404
0.0030734585
0.0024917395
0.0019970103
0.0015847667
0.0012471415
0.00097451305
0.00075683771
0.00058458941
0.0004493125
0.00034385139
0.00026233999
0.00020007666
0.00015345565
0.00011972158
0.0050436867
0.0044787484
0.0039232188
0.0033888495
0.0028509245
0.0023386672
0.0018759022
0.0014760187
0.0011434278
0.00087576816
0.00066642746
0.00050680757
0.00038798585
0.00030173937
0.00024104252
0.00020019249
0.00017470854
0.00016116907
0.0001572021
0.00016121398
0.0035667482
0.0033977349
0.0031310109
0.002779906
0.0023854106
0.0019942576
0.0016381051
0.0013336194
0.0010862591
0.00089379748
0.00074965806
0.00064556774
0.00057329075
0.00052555757
0.00049641085
0.00048119887
0.00047639564
0.00047940802
0.00048852916
0.00050264546
0.0042788358
0.0041378024
0.0038831198
0.0035297055
0.0031351081
0.0027470617
0.0023960578
0.0020972887
0.0018544722
0.0016639374
0.0015182984
0.0014091257
0.0013284928
0.0012696726
0.0012273049
0.0011972792
0.0011765117
0.0011627357
0.0011543499
0.0011501369
0.15517075
0.13049959
0.10785017
0.093528924
0.082158314
0.072614857
0.064398808
0.057240554
0.050973184
0.045465517
0.040610378
0.036319041
0.032517184
0.029141981
0.026139934
0.023465226
0.021078424
0.018944219
0.017029459
0.015314971
0.15319337
0.12871017
0.10632033
0.092163704
0.080935639
0.071513922
0.06340323
0.056338386
0.0501544
0.044721355
0.039933094
0.035701746
0.031953728
0.028626861
0.025668218
0.023032502
0.020680798
0.018578314
0.016691711
0.015002485
0.14916013
0.12516744
0.10333842
0.089534063
0.078597835
0.0694229
0.061524599
0.054646072
0.048626664
0.043339587
0.038681168
0.034565561
0.03092088
0.027686391
0.024810419
0.022248775
0.019963597
0.017921122
0.016088126
0.014446454
0.14314159
0.11995748
0.098990624
0.085721653
0.075218833
0.066408743
0.058824223
0.05222016
0.046442401
0.041369038
0.03690029
0.03295347
0.02945931
0.026359287
0.023603611
0.021149719
0.018961224
0.017005853
0.015251046
0.013678454
0.13530214
0.11322815
0.093402901
0.08083914
0.070899727
0.062562614
0.05538491
0.049136294
0.04367103
0.038873666
0.034649594
0.030920333
0.027620089
0.024693247
0.022092485
0.019777321
0.017713156
0.01586955
0.014215529
0.012732302
0.12586522
0.10517532
0.086738602
0.075030468
0.065768768
0.057999429
0.051310091
0.045487874
0.040397136
0.035930253
0.031998926
0.028529805
0.025461335
0.022741444
0.02032579
0.01817638
0.01626064
0.014550138
0.013016516
0.011641075
0.11510204
0.096033804
0.079191058
0.068464421
0.059975586
0.052852682
0.046719256
0.041382037
0.036716918
0.032625272
0.029026069
0.025851899
0.023046129
0.020560804
0.018355046
0.016393742
0.014646583
0.013087158
0.011690484
0.010439145
0.10332179
0.086069124
0.070977365
0.061329424
0.053686552
0.047270246
0.041744199
0.036936387
0.032735389
0.029052516
0.025814802
0.022961462
0.02044138
0.018211249
0.016234116
0.014478171
0.012915724
0.011522504
0.010277349
0.0091653024
0.090860437
0.075567574
0.062330558
0.053826684
0.047078662
0.041408976
0.036524272
0.032274784
0.028562637
0.025309821
0.022452063
0.019935754
0.017715794
0.015753967
0.014017669
0.012478815
0.011112839
0.0098980834
0.0088177412
0.0078593812
0.07806856
0.064828248
0.053491327
0.046161469
0.040331064
0.035426733
0.031199049
0.02752083
0.024308282
0.021494546
0.019024446
0.016851892
0.014938087
0.01325017
0.01176016
0.010444084
0.009281302
0.0082543998
0.0073523807
0.0065632969
0.013506167
0.011702777
0.010173577
0.0088458831
0.0077115991
0.0067399452
0.0059042197
0.0051815202
0.0045532293
0.0040042293
0.0035222783
0.0030975674
0.0027222207
0.0023898303
0.0020951095
0.0018336388
0.0016016726
0.0013959932
0.0012138032
0.0010526456
0.00091034333
0.00078495185
0.00067472363
0.00057807977
0.00049358827
0.00041994708
0.00035597066
0.00030057927
0.00025279026
0.00021171075
0.00017653139
0.00014652066
0.00012101981
9.9437858e-05
8.1247028e-05
6.5977992e-05
5.321559e-05
4.2594173e-05
3.3793818e-05
2.65351e-05
2.0577865e-05
1.5710181e-05
1.1763999e-05
8.5630999e-06
6.0401187e-06
3.959437e-06
2.5247767e-06
1.1576035e-06
1.532046e-06
2.5090369e-06
0.013243897
0.011500467
0.010015118
0.0087211139
0.0076144931
0.0066651667
0.0058467035
0.0051370694
0.0045186022
0.0039769437
0.0035004852
0.0030799402
0.0027078182
0.0023779758
0.0020853052
0.0018255091
0.0015949252
0.0013903942
0.0012091616
0.0010488031
0.00090716748
0.00078233153
0.00067256542
0.00057630518
0.00049213145
0.00041875293
0.00035499322
0.00029978031
0.00025213807
0.00021117912
0.00017609866
0.00014616902
0.0001207346
9.9207056e-05
8.1060754e-05
6.5828147e-05
5.3095529e-05
4.2498447e-05
3.3717957e-05
2.6475443e-05
2.0531413e-05
1.5674488e-05
1.1737072e-05
8.5433586e-06
6.0262668e-06
3.9504774e-06
2.520077e-06
1.1548545e-06
1.5227075e-06
2.460096e-06
0.012782236
0.011146734
0.0097407708
0.008508579
0.0074516587
0.0065417302
0.005753193
0.0050657458
0.0044636205
0.0039339618
0.0034663531
0.0030524455
0.0026854204
0.0023595834
0.0020701242
0.0018129438
0.0015845143
0.0013817694
0.0012020226
0.0010429014
0.00090229547
0.00077831524
0.00066925889
0.00057358613
0.00048989768
0.00041691925
0.0003534889
0.00029854679
0.00025112704
0.00021035081
0.00017542043
0.00014561411
0.00012028109
9.8836986e-05
8.075941e-05
6.5583455e-05
5.2897568e-05
4.2339049e-05
3.3590385e-05
2.6374137e-05
2.0451782e-05
1.5612749e-05
1.1690122e-05
8.5086894e-06
6.001845e-06
3.9346444e-06
2.5119057e-06
1.1500484e-06
1.5040564e-06
2.364513e-06
0.012149479
0.01066335
0.0093701469
0.0082272475
0.0072400153
0.0063836018
0.005634761
0.0049760785
0.0043947251
0.0038801539
0.0034236395
0.0030180622
0.0026574516
0.002336669
0.0020512668
0.0017973882
0.0015716713
0.0013711673
0.0011932764
0.0010356931
0.00089636088
0.00077343385
0.00066524678
0.00057029015
0.00048719063
0.00041469585
0.00035166227
0.00029704551
0.00024989257
0.00020933529
0.00017458479
0.0001449265
0.00011971554
9.8372303e-05
8.0378257e-05
6.5271619e-05
5.2643346e-05
4.2132779e-05
3.3424059e-05
2.6241101e-05
2.0346498e-05
1.5530612e-05
1.1627325e-05
8.4621221e-06
5.9689591e-06
3.9133624e-06
2.500951e-06
1.1437894e-06
1.4760953e-06
2.2272041e-06
0.011373562
0.010072556
0.0089234751
0.0078964724
0.0069965636
0.0062042706
0.0055015613
0.0048755678
0.0043174446
0.003819685
0.0033756193
0.00297948
0.0026261919
0.0023112034
0.0020304529
0.0017803463
0.0015577082
0.0013597268
0.0011839059
0.0010280215
0.00089008245
0.00076829635
0.00066104209
0.00056684696
0.00048436837
0.00041237952
0.00034975811
0.00029547737
0.00024859873
0.00020826589
0.00017369958
0.00014419299
0.00011910747
9.78684e-05
7.9961202e-05
6.4927246e-05
5.2359986e-05
4.1900761e-05
3.3235316e-05
2.6088869e-05
2.0225092e-05
1.5435239e-05
1.155398e-05
8.4074976e-06
5.9302733e-06
3.8884247e-06
2.4880536e-06
1.1368486e-06
1.4391047e-06
2.0553828e-06
0.010478488
0.0093946346
0.0084190563
0.0075320551
0.0067337629
0.0060124024
0.0053591806
0.0047679101
0.0042344677
0.0037547307
0.0033242132
0.0029384799
0.0025933134
0.002284746
0.0020091192
0.0017631251
0.0015437993
0.0013484907
0.001174828
0.0010206855
0.00088415057
0.00076349486
0.00065714921
0.00056368347
0.00048178999
0.00041027056
0.00034802615
0.00029404889
0.00024741544
0.00020728167
0.00017287801
0.00014350526
0.00011853075
9.7384469e-05
7.9555417e-05
6.4587715e-05
5.2076923e-05
4.1666026e-05
3.3042045e-05
2.5931224e-05
2.0098075e-05
1.5334554e-05
1.1475959e-05
8.3490746e-06
5.8887274e-06
3.8617972e-06
2.474093e-06
1.1300474e-06
1.3935401e-06
1.857805e-06
0.0094877255
0.0086499036
0.007873218
0.0071435833
0.006455726
0.0058088211
0.0052069776
0.0046523911
0.0041457015
0.0036858861
0.0032705166
0.0028964545
0.0025603444
0.0022588422
0.0019887513
0.0017471059
0.0015311999
0.0013385809
0.0011670318
0.0010145473
0.00087931033
0.00075966796
0.00065411146
0.00056125892
0.00047984128
0.00040869115
0.00034673395
0.0002929811
0.0002465243
0.0002065311
0.00017224084
0.00014296105
0.00011806405
9.698353e-05
7.9211106e-05
6.429279e-05
5.1825467e-05
4.1453058e-05
3.2863251e-05
2.5782789e-05
1.9976584e-05
1.5236925e-05
1.1399434e-05
8.291297e-06
5.8473555e-06
3.8354819e-06
2.4599191e-06
1.1241774e-06
1.3400225e-06
1.6439479e-06
0.008430434
0.0078615671
0.0072984922
0.0067297366
0.0061539053
0.0055845831
0.0050383407
0.0045250933
0.0040495391
0.0036131993
0.0032155673
0.0028549405
0.0025290135
0.0022352301
0.001970992
0.0017337835
0.0015212365
0.0013311538
0.0011615121
0.0010104545
0.00087627748
0.000757416
0.0006524293
0.00055998819
0.00047886445
0.00040792219
0.00034611104
0.00029246066
0.00024607645
0.00020613599
0.0001718858
0.0001426384
0.00011776942
9.6714638e-05
7.8966856e-05
6.4072661e-05
5.1629089e-05
4.1279987e-05
3.2712835e-05
2.5654131e-05
1.9868565e-05
1.5148252e-05
1.1328698e-05
8.237214e-06
5.8081745e-06
3.8107814e-06
2.4459235e-06
1.1197498e-06
1.2792645e-06
1.423334e-06
0.0073353894
0.0070398291
0.0066819377
0.006260645
0.0057958098
0.0053131819
0.0048340396
0.0043723366
0.003936097
0.0035293994
0.003153894
0.0028097023
0.0024959553
0.0022111824
0.0019535991
0.0017212968
0.001512356
0.0013249113
0.0011571856
0.0010075054
0.00087430491
0.00075612286
0.0006515972
0.00055945853
0.00047852407
0.0004076923
0.00034593863
0.00029231179
0.00024593107
0.0002059838
0.00017172315
0.0001424659
0.00011759015
9.6532885e-05
7.8787215e-05
6.3899445e-05
5.146598e-05
4.1129871e-05
3.2577751e-05
2.5535316e-05
1.9766565e-05
1.5063039e-05
1.1259785e-05
8.1840414e-06
5.7692474e-06
3.7864302e-06
2.4310465e-06
1.1164555e-06
1.2122775e-06
1.2057313e-06
0.0062453051
0.0061595952
0.0059655075
0.0056823592
0.0053401169
0.0049632765
0.0045697878
0.0041747641
0.0037895449
0.003421423
0.0030747471
0.0027519253
0.0024539528
0.002180797
0.0019317535
0.0017057174
0.0015013631
0.0013172617
0.0011519572
0.0010040132
0.00087204049
0.00075470984
0.00065075884
0.00055899362
0.00047828869
0.00040758596
0.0003458935
0.00029228436
0.00024589553
0.00020592697
0.00017164047
0.0001423584
0.00011746219
9.6390476e-05
7.8636846e-05
6.3747323e-05
5.1317544e-05
4.0989559e-05
3.2448919e-05
2.5420267e-05
1.9666684e-05
1.4978919e-05
1.1191375e-05
8.131091e-06
5.7302819e-06
3.7621753e-06
2.4151308e-06
1.113998e-06
1.1416038e-06
1.0013563e-06
0.0050587066
0.0050957378
0.0050354135
0.0048843733
0.0046715744
0.0044148628
0.0041264736
0.0038198603
0.0035074517
0.0031983999
0.0028990419
0.0026137716
0.0023454238
0.002095554
0.0018647753
0.0016530532
0.0014599175
0.0012846148
0.0011262175
0.00098370191
0.00085599969
0.00074203183
0.00064073092
0.00055105548
0.00047199943
0.00040259841
0.00034193421
0.00028913795
0.00024339238
0.00020393349
0.00017005145
0.00014109095
0.00011645098
9.558389e-05
7.7994069e-05
6.3235979e-05
5.0911872e-05
4.0669e-05
3.2196997e-05
2.5223771e-05
1.9514929e-05
1.4863472e-05
1.1105035e-05
8.069199e-06
5.6865062e-06
3.7370909e-06
2.3964174e-06
1.1127449e-06
1.0683006e-06
8.2156966e-07
0.0039204484
0.0040240788
0.0040469016
0.0039898242
0.0038762503
0.0037192
0.003525826
0.003306461
0.0030722069
0.0028318129
0.0025918185
0.0023572693
0.0021318921
0.001918204
0.0017177555
0.0015313797
0.0013593803
0.0012016758
0.0010579132
0.00092755425
0.0008099385
0.00070432861
0.0006099429
0.00052597889
0.00045163058
0.00038610128
0.00032861341
0.00027841608
0.00023479101
0.00019705717
0.00016457419
0.0001367448
0.00011301634
9.2881391e-05
7.5877649e-05
6.1587101e-05
4.9634653e-05
3.9686158e-05
3.1446425e-05
2.4655817e-05
1.9089843e-05
1.4550085e-05
1.0877718e-05
7.9100595e-06
5.5763639e-06
3.6715345e-06
2.3492723e-06
1.1022345e-06
9.7529728e-07
6.5095629e-07
0.0029418592
0.0030887443
0.0031696776
0.003184963
0.0031491996
0.003071896
0.002957388
0.0028130026
0.0026478653
0.0024697828
0.0022849623
0.002098551
0.0019146983
0.001736522
0.0015662414
0.0014053618
0.0012548255
0.0011151326
0.00098644625
0.00086867803
0.00076155508
0.00066467123
0.00057752645
0.00049955714
0.00043015951
0.00036870787
0.00031456915
0.00026711446
0.00022572841
0.00018981657
0.00015881133
0.00013217641
0.00010941011
9.0047453e-05
7.3661372e-05
5.9863008e-05
4.8301289e-05
3.8661802e-05
3.0665463e-05
2.4065863e-05
1.8649003e-05
1.4225598e-05
1.064259e-05
7.7457148e-06
5.4622232e-06
3.604103e-06
2.2984106e-06
1.0930987e-06
8.7452323e-07
4.9109502e-07
0.0021194845
0.0022884254
0.0024050305
0.0024706063
0.0024919203
0.0024753023
0.0024235659
0.0023414731
0.0022357859
0.0021129283
0.0019783715
0.0018369162
0.0016926986
0.0015490742
0.0014086447
0.0012733673
0.0011446589
0.0010234852
0.00091044557
0.00080584891
0.00070977679
0.00062213507
0.0005426957
0.00047113049
0.00040703849
0.00034996806
0.00029943502
0.00025493751
0.00021596817
0.0001820242
0.00015261544
0.00012727083
0.00010554341
8.7013977e-05
7.1293555e-05
5.8024867e-05
4.688291e-05
3.757471e-05
2.9838703e-05
2.3442855e-05
1.818459e-05
1.3884507e-05
1.0395878e-05
7.5734055e-06
5.3423752e-06
3.5330014e-06
2.243478e-06
1.0836378e-06
7.7323449e-07
3.5462537e-07
0.0014581368
0.0016274968
0.0017590637
0.0018538118
0.0019126583
0.0019388247
0.0019339696
0.0019008596
0.0018439455
0.0017680213
0.0016775409
0.0015766368
0.0014690787
0.0013581292
0.001246491
0.0011363428
0.0010293926
0.00092693169
0.00082989241
0.00073890658
0.00065435861
0.00057643184
0.00050514818
0.00044040194
0.00038198837
0.00032962765
0.00028298511
0.00024168832
0.00020534145
0.00017353726
0.00014586716
0.00012192938
0.00010133546
8.3715425e-05
6.8721465e-05
5.6030585e-05
4.5346176e-05
3.6398684e-05
2.8945722e-05
2.2771002e-05
1.7684513e-05
1.3517631e-05
1.0130722e-05
7.3879825e-06
5.2132012e-06
3.4553381e-06
2.1830942e-06
1.0720199e-06
6.7557177e-07
2.4816636e-07
0.0009516148
0.0011041272
0.0012332671
0.0013386916
0.0014175812
0.001470404
0.0014976016
0.0015003729
0.0014811857
0.0014431879
0.0013896583
0.0013238597
0.0012489499
0.0011678365
0.0010830775
0.00099685631
0.00091098941
0.00082694469
0.00074587059
0.00066863257
0.00059585133
0.00052793935
0.00046513448
0.00040753039
0.00035510352
0.00030773682
0.00026524039
0.00022736947
0.00019383998
0.00016434186
0.00013855044
0.00011613593
9.6771307e-05
8.0138626e-05
6.5933941e-05
5.3870979e-05
4.3683711e-05
3.5127904e-05
2.7981993e-05
2.2046814e-05
1.7146091e-05
1.3122884e-05
9.8455111e-06
7.188091e-06
5.0737163e-06
3.3699969e-06
2.1170306e-06
1.0569338e-06
5.8491279e-07
1.7398817e-07
0.00058349206
0.00070862084
0.00082281249
0.00092440093
0.0010087403
0.0010743102
0.0011203602
0.0011468262
0.0011546013
0.0011453516
0.0011211649
0.0010843473
0.0010373024
0.00098240025
0.00092186158
0.00085769082
0.00079164564
0.00072522554
0.00065967415
0.00059599301
0.00053496232
0.0004771646
0.0004230093
0.00037275691
0.00032654198
0.00028439427
0.00024625823
0.00021201044
0.00018147521
0.00015443841
0.00013065945
0.00010988172
9.1841306e-05
7.6274312e-05
6.2922744e-05
5.1539118e-05
4.1889923e-05
3.3758013e-05
2.6944213e-05
2.1267836e-05
1.656752e-05
1.2698926e-05
9.5392451e-06
6.9728844e-06
4.9233463e-06
3.2762041e-06
2.0454273e-06
1.037199e-06
5.0380385e-07
1.3021694e-07
0.00033256799
0.00042588696
0.00051770694
0.00060554205
0.0006843368
0.00075147265
0.00080527747
0.00084473003
0.00086955896
0.00088022335
0.00087772667
0.00086343981
0.00083897471
0.0008060676
0.00076647119
0.00072187151
0.00067383044
0.0006237505
0.00057285586
0.00052218606
0.00047259934
0.00042478241
0.00037926412
0.00033643143
0.00029654634
0.00025976288
0.00022614358
0.00019567507
0.00016828266
0.00014384358
0.00012219897
0.00010316447
8.6539462e-05
7.2114956e-05
5.9680178e-05
4.902791e-05
3.9958698e-05
3.2283991e-05
2.5828417e-05
2.0431031e-05
1.594653e-05
1.2244075e-05
9.2107043e-06
6.7414244e-06
4.761506e-06
3.1733135e-06
1.9685775e-06
1.0118953e-06
4.3364455e-07
1.1127262e-07
0.00017663891
0.00023815727
0.00030454392
0.00037304566
0.00043904177
0.00049956986
0.00055245638
0.00059607307
0.00062937405
0.00065193359
0.00066387002
0.00066572751
0.00065837204
0.00064289626
0.00062052651
0.00059254182
0.00056020899
0.00052473213
0.0004872178
0.00044865352
0.00040989637
0.00037166966
0.00033456552
0.0002990517
0.00026548135
0.00023410443
0.00020507994
0.00017848857
0.00015434497
0.00013260969
0.00011320023
9.6001258e-05
8.0873717e-05
6.7662922e-05
5.6205465e-05
4.6335042e-05
3.7887198e-05
3.0703059e-05
2.4632182e-05
1.9534442e-05
1.5281634e-05
1.1757258e-05
8.8591561e-06
6.4932199e-06
4.587989e-06
3.0611433e-06
1.8870652e-06
9.8066864e-07
3.7479186e-07
1.0925624e-07
9.4723278e-05
0.00012727242
0.00016841037
0.00021552371
0.00026481767
0.00031349819
0.00035930398
0.00040035252
0.0004351774
0.00046279055
0.00048267221
0.00049471153
0.00049913899
0.00049645886
0.00048737922
0.00047274269
0.00045346492
0.00043048257
0.00040471056
0.00037701012
0.00034816701
0.00031887752
0.00028974132
0.00026125945
0.00023383662
0.0002077864
0.00018333851
0.00016064743
0.00013980176
0.00012083382
0.00010372914
8.8435605e-05
7.487191e-05
6.2935345e-05
5.250867e-05
4.3466085e-05
3.5678273e-05
2.9016525e-05
2.3356025e-05
1.857825e-05
1.4572919e-05
1.1238591e-05
8.4847907e-06
6.228548e-06
4.4031947e-06
2.9401392e-06
1.8017884e-06
9.4382894e-07
3.2681236e-07
1.1585657e-07
6.8361384e-05
7.6267897e-05
9.4441392e-05
0.00012063719
0.00015198723
0.00018614242
0.00022105786
0.0002548903
0.00028604882
0.00031327127
0.00033565176
0.00035262615
0.00036394122
0.00036961695
0.00036990191
0.00036522331
0.00035613656
0.00034327859
0.00032732659
0.00030896265
0.00028884573
0.00026759087
0.00024575452
0.00022382538
0.00020221979
0.00018128089
0.00016128068
0.00014242425
0.00012485554
0.00010866409
9.3892316e-05
8.0542998e-05
6.858659e-05
5.79682e-05
4.8614026e-05
4.0437132e-05
3.3342505e-05
2.7231333e-05
2.2004551e-05
1.756559e-05
1.3822625e-05
1.068978e-05
8.088989e-06
5.9486256e-06
4.2082338e-06
2.8114224e-06
1.7139286e-06
9.0232182e-07
2.8877821e-07
1.2415233e-07
8.2135915e-05
7.023639e-05
6.8853451e-05
7.6192e-05
9.0248874e-05
0.00010921815
0.00013143837
0.00015530331
0.00017931611
0.0002021708
0.00022279835
0.00024038023
0.00025434641
0.00026436403
0.00027031685
0.00027227621
0.00027046666
0.00026522995
0.00025699019
0.00024622156
0.00023341971
0.00021907778
0.0002036676
0.00018762542
0.00017134212
0.00015515713
0.00013935571
0.00012416875
0.00010977489
9.6304007e-05
8.3841901e-05
7.2435691e-05
6.209951e-05
5.2820285e-05
4.4563332e-05
3.7277604e-05
3.0900448e-05
2.5361792e-05
2.0587737e-05
1.650349e-05
1.3035786e-05
1.0114541e-05
7.6745788e-06
5.6557354e-06
4.0049682e-06
2.6767315e-06
1.6248516e-06
8.575375e-07
2.5944892e-07
1.2971519e-07
0.00012365937
9.665561e-05
7.9520358e-05
7.0891389e-05
6.9491131e-05
7.404152e-05
8.3315964e-05
9.6044439e-05
0.00011095877
0.00012686977
0.00014271829
0.00015760225
0.00017079233
0.00018173993
0.0001900761
0.00019560106
0.0001982665
0.00019815301
0.00019544507
0.0001904055
0.00018335077
0.00017462819
0.00016459597
0.00015360686
0.00014199501
0.0001300663
0.00011809171
0.00010630343
9.489337e-05
8.4013544e-05
7.3777993e-05
6.4265814e-05
5.5524957e-05
4.7576471e-05
4.0418934e-05
3.4032844e-05
2.8384795e-05
2.3431318e-05
1.9122293e-05
1.5403872e-05
1.2220951e-05
9.5190747e-06
7.2461242e-06
5.3533636e-06
3.7960521e-06
2.5383493e-06
1.5360339e-06
8.1109113e-07
2.3738075e-07
1.3076206e-07
0.00018327989
0.00014537534
0.00011620394
9.4770668e-05
8.0359491e-05
7.2145002e-05
6.9309789e-05
7.0940126e-05
7.6056089e-05
8.3677306e-05
9.2869909e-05
0.00010277622
0.00011263801
0.00012181522
0.00012979786
0.00013620961
0.00014080421
0.00014345579
0.00014414507
0.0001429425
0.0001399901
0.00013548287
0.0001296511
0.00012274424
0.00011501698
0.0001067177
9.8079414e-05
8.9313129e-05
8.0603474e-05
7.2106299e-05
6.3947993e-05
5.6226165e-05
4.9011398e-05
4.2349776e-05
3.6265908e-05
3.0766214e-05
2.584227e-05
2.1474056e-05
1.7632978e-05
1.4284584e-05
1.1390936e-05
8.9125927e-06
6.8102556e-06
5.0463644e-06
3.5849821e-06
2.3990238e-06
1.4490056e-06
7.6459983e-07
2.2098937e-07
1.2749865e-07
0.00025366521
0.00020840614
0.00017054637
0.00013937818
0.00011458953
9.5710215e-05
8.2265722e-05
7.3667186e-05
6.9225959e-05
6.8205048e-05
6.9857109e-05
7.3450175e-05
7.8290882e-05
8.3746627e-05
8.9263731e-05
9.4379668e-05
9.8729288e-05
0.00010204562
0.00010415595
0.00010497411
0.0001044897
0.00010275559
9.9874454e-05
9.5985334e-05
9.1250907e-05
8.5846031e-05
7.9947849e-05
7.3727698e-05
6.7344825e-05
6.0941903e-05
5.4642174e-05
4.8548039e-05
4.2740858e-05
3.7281732e-05
3.2213015e-05
2.756034e-05
2.3334945e-05
1.9536133e-05
1.6153717e-05
1.3170336e-05
1.0563577e-05
8.3078718e-06
6.3760542e-06
4.7411913e-06
3.3762187e-06
2.2619723e-06
1.365387e-06
7.1956941e-07
2.0869381e-07
1.2113592e-07
0.00032936768
0.00027961698
0.00023591825
0.00019777677
0.00016514996
0.00013782639
0.00011559454
9.8132784e-05
8.501136e-05
7.5730004e-05
6.974567e-05
6.6491248e-05
6.5394402e-05
6.589795e-05
6.7478953e-05
6.9664351e-05
7.2042585e-05
7.427116e-05
7.6080213e-05
7.7272314e-05
7.7718909e-05
7.7354097e-05
7.6166454e-05
7.4189665e-05
7.149264e-05
6.8169741e-05
6.4331623e-05
6.0097006e-05
5.5585681e-05
5.0912809e-05
4.6184607e-05
4.1495309e-05
3.6925333e-05
3.2540463e-05
2.8391915e-05
2.4517056e-05
2.0940625e-05
1.7676276e-05
1.4728294e-05
1.2093368e-05
9.7623169e-06
7.7217415e-06
5.9554222e-06
4.4461506e-06
3.1753472e-06
2.1309477e-06
1.2869878e-06
6.7737793e-07
1.9912991e-07
1.1305671e-07
0.00040642766
0.00035441251
0.00030719494
0.00026443288
0.00022624773
0.00019260355
0.00016347504
0.00013874272
0.00011818635
0.00010151114
8.836614e-05
7.8355602e-05
7.1051735e-05
6.6010548e-05
6.2788361e-05
6.0956958e-05
6.011669e-05
5.9907186e-05
6.0015337e-05
6.0180317e-05
6.0195646e-05
5.9908524e-05
5.9216821e-05
5.8064229e-05
5.6434084e-05
5.4342403e-05
5.1830625e-05
4.8958513e-05
4.5797518e-05
4.2424905e-05
3.8918772e-05
3.5354061e-05
3.1799557e-05
2.8315839e-05
2.4954078e-05
2.1755573e-05
1.8751882e-05
1.5965406e-05
1.3410303e-05
1.1093609e-05
9.0164562e-06
7.1753525e-06
5.5633315e-06
4.1716074e-06
2.9892412e-06
2.0103588e-06
1.2159588e-06
6.3935845e-07
1.9138687e-07
1.0438269e-07
0.00048203612
0.00042942939
0.00038051101
0.00033504637
0.00029324392
0.00025517752
0.00022094288
0.00019056173
0.00016397034
0.00014103729
0.00012157454
0.00010534253
9.2057142e-05
8.1400172e-05
7.3031596e-05
6.6601925e-05
6.176405e-05
5.8184163e-05
5.5551324e-05
5.358518e-05
5.2041563e-05
5.0715865e-05
4.9444259e-05
4.8102958e-05
4.660582e-05
4.4900634e-05
4.2964498e-05
4.0798665e-05
3.8423237e-05
3.5871984e-05
3.3187563e-05
3.0417285e-05
2.7609574e-05
2.4811134e-05
2.2064854e-05
1.9408382e-05
1.6873313e-05
1.4484881e-05
1.2262075e-05
1.0218063e-05
8.3608406e-06
6.6940533e-06
5.2178071e-06
3.9300262e-06
2.8261322e-06
1.9053588e-06
1.1549149e-06
6.0690668e-07
1.8513675e-07
9.5885556e-08
0.00055425977
0.0005022708
0.00045302367
0.00040635946
0.00036252102
0.00032164373
0.00028389357
0.0002493824
0.00021815454
0.00019019864
0.00016545366
0.00014380957
0.00012510951
0.00010915551
9.571626e-05
8.4535733e-05
7.5342293e-05
6.785793e-05
6.1807269e-05
5.6925799e-05
5.2966962e-05
4.9707778e-05
4.6952878e-05
4.453689e-05
4.2325232e-05
4.0213475e-05
3.8125495e-05
3.6010692e-05
3.3840563e-05
3.1604911e-05
2.9307957e-05
2.6964571e-05
2.4596793e-05
2.2230781e-05
1.9894251e-05
1.7614443e-05
1.5416612e-05
1.3323001e-05
1.1352249e-05
9.5191618e-06
7.8347782e-06
6.3067e-06
4.9395075e-06
3.7357383e-06
2.6955026e-06
1.821837e-06
1.1069797e-06
5.8156518e-07
1.806082e-07
8.8057608e-08
0.00062182283
0.00057128446
0.00052270134
0.00047596888
0.00043133072
0.00038895046
0.00034902758
0.00031172463
0.00027715394
0.00024538548
0.00021644974
0.00019033565
0.0001669896
0.0001463173
0.00012818784
0.00011243861
9.8881275e-05
8.73084e-05
7.7500657e-05
6.9234022e-05
6.2286702e-05
5.6445385e-05
5.1510593e-05
4.7300913e-05
4.3656023e-05
4.0438466e-05
3.7534234e-05
3.4852298e-05
3.2323243e-05
2.9897215e-05
2.7541402e-05
2.5237255e-05
2.2977632e-05
2.0764043e-05
1.8604099e-05
1.6509284e-05
1.449307e-05
1.2569425e-05
1.0751695e-05
9.0518374e-06
7.4799716e-06
6.0442306e-06
4.7507688e-06
3.6043291e-06
2.6077184e-06
1.7662383e-06
1.0756956e-06
5.6503204e-07
1.7842121e-07
8.1195521e-08
0.0006839361
0.00063538165
0.00058814229
0.00054215389
0.00049764112
0.00045477434
0.0004137616
0.00037478783
0.00033800267
0.00030352592
0.00027144854
0.00024182928
0.0002146918
0.00019002414
0.00016777981
0.00014787983
0.00013021578
0.00011465377
0.00010103928
8.9202571e-05
7.8964356e-05
7.0141468e-05
6.2552256e-05
5.6021449e-05
5.0384305e-05
4.5489897e-05
4.1203462e-05
3.7407802e-05
3.400379e-05
3.0910062e-05
2.8062052e-05
2.5410503e-05
2.2919624e-05
2.056505e-05
1.8331741e-05
1.6211945e-05
1.4203317e-05
1.2307256e-05
1.052751e-05
8.8690541e-06
7.3372573e-06
5.9373333e-06
4.6739797e-06
3.5515467e-06
2.573328e-06
1.7451561e-06
1.0647779e-06
5.5907515e-07
1.7937077e-07
7.5457887e-08
0.0007401623
0.0006938908
0.00064842233
0.00060372451
0.00055999296
0.00051739201
0.00047612264
0.00043637319
0.00039830877
0.00036207517
0.000327799
0.00029558385
0.00026550669
0.00023761595
0.00021193071
0.00018844068
0.00016710698
0.0001478638
0.00013062104
0.00011526763
0.00010167552
8.9704029e-05
7.9204401e-05
7.0024341e-05
6.2012318e-05
5.5021429e-05
4.8912708e-05
4.3557755e-05
3.8840638e-05
3.4659064e-05
3.0924854e-05
2.7563798e-05
2.4515002e-05
2.1729821e-05
1.9170524e-05
1.6808797e-05
1.4624188e-05
1.2602599e-05
1.0734879e-05
9.0155858e-06
7.4419445e-06
6.0130348e-06
4.7291495e-06
3.5916262e-06
2.6019549e-06
1.7646506e-06
1.0776962e-06
5.6534468e-07
1.8422602e-07
7.0906843e-08
0.00079031141
0.00074644081
0.00070296986
0.00065989269
0.00061737197
0.00057555924
0.00053463972
0.00049479343
0.00045618652
0.00041897406
0.0003832998
0.00034929256
0.00031706259
0.000286699
0.00025826797
0.00023181144
0.00020734638
0.00018486472
0.00016433417
0.00014569967
0.00012888566
0.00011379887
0.00010033155
8.8365116e-05
7.7773831e-05
6.8428525e-05
6.0200093e-05
5.2962649e-05
4.6596248e-05
4.0989049e-05
3.6038928e-05
3.1654502e-05
2.775561e-05
2.427331e-05
2.1149464e-05
1.8336003e-05
1.5793972e-05
1.3492433e-05
1.1407328e-05
9.5203549e-06
7.817931e-06
6.2902914e-06
4.9306952e-06
3.7350287e-06
2.7007708e-06
1.8292796e-06
1.1170875e-06
5.8508951e-07
1.9356853e-07
6.7540907e-08
0.00083435148
0.00079286071
0.00075145632
0.00071015592
0.0006690891
0.00062839193
0.00058822994
0.00054876855
0.00051016623
0.00047257649
0.00043614751
0.00040101909
0.00036731928
0.00033516179
0.00030464382
0.00027584405
0.00024882109
0.00022361227
0.00020023315
0.00017867758
0.00015891838
0.00014090874
0.00012458402
0.00010986417
9.6656486e-05
8.4858585e-05
7.4361556e-05
6.5053026e-05
5.6820104e-05
4.9552032e-05
4.3142491e-05
3.7491461e-05
3.2506639e-05
2.8104387e-05
2.4210241e-05
2.0759031e-05
1.7694663e-05
1.4969642e-05
1.2544406e-05
1.0386541e-05
8.4699588e-06
6.774085e-06
5.2830767e-06
3.9853239e-06
2.8723659e-06
1.9407267e-06
1.183936e-06
6.1874824e-07
2.0763503e-07
6.5312532e-08
0.00087234846
0.00083311033
0.00079371858
0.00075421285
0.00071469159
0.00067527523
0.00063610885
0.0005973408
0.0005591174
0.00052158436
0.00048488633
0.00044916453
0.00041455384
0.00038118051
0.0003491599
0.00031859438
0.00028957126
0.00026216112
0.00023641641
0.00021237056
0.00019003758
0.00016941213
0.0001504702
0.00013317025
0.0001174549
0.00010325297
9.048184e-05
7.9050076e-05
6.886009e-05
5.9810822e-05
5.1800288e-05
4.4727895e-05
3.8496476e-05
3.3013967e-05
2.8194707e-05
2.3960364e-05
2.0240483e-05
1.6972719e-05
1.4102776e-05
1.1584127e-05
9.377568e-06
7.4506773e-06
5.7771925e-06
4.3365677e-06
3.1129269e-06
2.0966202e-06
1.2768769e-06
6.656125e-07
2.2622402e-07
6.4139223e-08
0.00090437837
0.00086718209
0.00082965115
0.00079184653
0.00075383856
0.00071573336
0.00067765693
0.00063974055
0.00060211694
0.00056492111
0.00052828994
0.00049236035
0.00045726702
0.00042314042
0.00039010474
0.00035827588
0.0003277593
0.00029864817
0.00027102146
0.00024494258
0.00022045812
0.00019759714
0.00017637081
0.00015677255
0.00013877868
0.00012234949
0.00010743074
9.3955529e-05