/*--------------------------------*- C++ -*----------------------------------*\
| =========                 |                                                 |
| \\      /  F ield         | OpenFOAM: The Open Source CFD Toolbox           |
|  \\    /   O peration     | Version:  4.1                                   |
|   \\  /    A nd           | Web:      www.OpenFOAM.org                      |
|    \\/     M anipulation  |                                                 |
\*---------------------------------------------------------------------------*/
FoamFile
{
    version     2.0;
    format      ascii;
    class       volScalarField;
    location    "10";
    object      p;
}
// * * * * * * * * * * * * * * * * * * * * * * * * * * * * * * * * * * * * * //

dimensions      [0 2 -2 0 0 0 0];

internalField   nonuniform List<scalar> 
1000
(
1.5223558
1.5054267
1.4889874
1.4728827
1.4569819
1.4412092
1.4255261
1.4099124
1.3943548
1.3788426
1.3633668
1.3479208
1.3325001
1.3171015
1.3017222
1.2863604
1.271014
1.2556815
1.2403616
1.2250529
1.2097545
1.1944653
1.1791844
1.1639112
1.1486448
1.1333846
1.1181301
1.1028806
1.0876357
1.072395
1.057158
1.0419244
1.0266939
1.0114661
0.99624073
0.98101758
0.9657964
0.95057698
0.93535913
0.92014268
0.90492745
0.88971331
0.87450011
0.85928775
0.8440761
0.82886507
0.81365455
0.79844448
0.78323478
0.76802537
0.75281621
0.73760725
0.72239844
0.70718975
0.69198115
0.67677262
0.66156415
0.6463557
0.63114729
0.61593889
0.6007305
0.58552212
0.57031375
0.55510538
0.53989701
0.52468864
0.50948027
0.49427191
0.47906354
0.46385517
0.44864681
0.43343844
0.41823007
0.40302171
0.38781334
0.37260497
0.35739661
0.34218824
0.32697987
0.31177151
0.29656314
0.28135477
0.26614641
0.25093804
0.23572967
0.22052131
0.20531294
0.19010457
0.17489621
0.15968784
0.14447948
0.12927111
0.11406274
0.098854376
0.083646009
0.068437643
0.053229276
0.03802091
0.022812545
0.0076041806
1.5220107
1.5050655
1.4888964
1.4729888
1.4571346
1.4413357
1.4256215
1.4099903
1.394423
1.3789023
1.3634178
1.347964
1.3325369
1.3171332
1.30175
1.2863848
1.2710356
1.2557007
1.2403786
1.2250681
1.209768
1.1944774
1.1791952
1.1639208
1.1486534
1.1333923
1.1181369
1.1028867
1.0876411
1.0723998
1.0571622
1.0419281
1.0266971
1.0114689
0.9962432
0.98101973
0.96579825
0.95057857
0.93536048
0.92014382
0.9049284
0.8897141
0.87450076
0.85928828
0.84407652
0.8288654
0.81365481
0.79844468
0.78323493
0.76802549
0.7528163
0.73760731
0.72239848
0.70718978
0.69198117
0.67677264
0.66156415
0.64635571
0.63114729
0.61593889
0.6007305
0.58552212
0.57031375
0.55510538
0.53989701
0.52468864
0.50948027
0.49427191
0.47906354
0.46385517
0.44864681
0.43343844
0.41823007
0.40302171
0.38781334
0.37260497
0.35739661
0.34218824
0.32697987
0.31177151
0.29656314
0.28135477
0.26614641
0.25093804
0.23572967
0.22052131
0.20531294
0.19010457
0.17489621
0.15968784
0.14447948
0.12927111
0.11406274
0.098854376
0.083646009
0.068437643
0.053229276
0.03802091
0.022812544
0.0076041797
1.5213991
1.5043366
1.4885412
1.4729795
1.4572562
1.4414475
1.4256948
1.4100439
1.3944726
1.3789503
1.363461
1.3480005
1.3325673
1.3171591
1.3017725
1.2864045
1.2710529
1.2557159
1.240392
1.22508
1.2097786
1.1944868
1.1792036
1.1639283
1.1486601
1.1333982
1.1181422
1.1028914
1.0876453
1.0724035
1.0571656
1.0419311
1.0266997
1.0114712
0.99624522
0.98102149
0.96579979
0.95057991
0.93536164
0.92014481
0.90492925
0.88971482
0.87450137
0.85928878
0.84407694
0.82886574
0.81365509
0.7984449
0.7832351
0.76802562
0.7528164
0.73760739
0.72239854
0.70718982
0.6919812
0.67677266
0.66156417
0.64635572
0.63114729
0.61593889
0.6007305
0.58552212
0.57031375
0.55510538
0.53989701
0.52468864
0.50948027
0.49427191
0.47906354
0.46385517
0.44864681
0.43343844
0.41823007
0.40302171
0.38781334
0.37260497
0.35739661
0.34218824
0.32697987
0.31177151
0.29656314
0.28135477
0.26614641
0.25093804
0.23572967
0.22052131
0.20531294
0.19010457
0.17489621
0.15968784
0.14447948
0.12927111
0.11406274
0.098854376
0.083646009
0.068437642
0.053229275
0.038020909
0.022812542
0.0076041783
1.520805
1.5035683
1.4880985
1.4729019
1.4573493
1.4415526
1.4257651
1.4100937
1.3945203
1.3789993
1.3635071
1.3480403
1.3326007
1.3171874
1.3017971
1.2864261
1.2710719
1.2557326
1.2404068
1.225093
1.2097902
1.1944971
1.1792129
1.1639366
1.1486675
1.1334049
1.1181482
1.1028968
1.0876501
1.0724078
1.0571694
1.0419346
1.0267029
1.011474
0.99624769
0.98102369
0.96580175
0.95058164
0.93536317
0.92014615
0.90493043
0.88971584
0.87450226
0.85928955
0.84407759
0.8288663
0.81365556
0.79844529
0.78323542
0.76802588
0.75281661
0.73760755
0.72239867
0.70718992
0.69198128
0.67677271
0.66156421
0.64635575
0.63114732
0.61593891
0.60073051
0.58552213
0.57031375
0.55510538
0.53989701
0.52468864
0.50948027
0.49427191
0.47906354
0.46385517
0.44864681
0.43343844
0.41823007
0.40302171
0.38781334
0.37260497
0.35739661
0.34218824
0.32697987
0.31177151
0.29656314
0.28135477
0.26614641
0.25093804
0.23572967
0.22052131
0.20531294
0.19010457
0.17489621
0.15968784
0.14447948
0.12927111
0.11406274
0.098854375
0.083646009
0.068437642
0.053229275
0.038020908
0.022812541
0.0076041774
1.5204544
1.5030957
1.4878067
1.4728361
1.4574005
1.4416187
1.4258108
1.4101261
1.3945516
1.3790324
1.3635392
1.3480686
1.3326247
1.317208
1.3018152
1.2864422
1.2710861
1.2557452
1.2404179
1.225103
1.2097991
1.1945051
1.1792201
1.1639431
1.1486733
1.1334101
1.1181529
1.102901
1.087654
1.0724113
1.0571725
1.0419373
1.0267054
1.0114762
0.9962497
0.98102549
0.96580335
0.95058307
0.93536444
0.92014728
0.90493142
0.88971671
0.87450302
0.85929021
0.84407816
0.82886678
0.81365597
0.79844564
0.78323571
0.76802612
0.7528168
0.73760771
0.72239879
0.70719002
0.69198135
0.67677277
0.66156425
0.64635578
0.63114734
0.61593892
0.60073052
0.58552214
0.57031376
0.55510538
0.53989701
0.52468864
0.50948027
0.49427191
0.47906354
0.46385517
0.44864681
0.43343844
0.41823007
0.40302171
0.38781334
0.37260497
0.35739661
0.34218824
0.32697987
0.31177151
0.29656314
0.28135477
0.26614641
0.25093804
0.23572967
0.22052131
0.20531294
0.19010457
0.17489621
0.15968784
0.14447948
0.12927111
0.11406274
0.098854375
0.083646008
0.068437641
0.053229274
0.038020908
0.022812541
0.0076041774
1.5204544
1.5030957
1.4878067
1.4728361
1.4574005
1.4416187
1.4258107
1.4101261
1.3945516
1.3790324
1.3635392
1.3480686
1.3326247
1.317208
1.3018152
1.2864422
1.2710861
1.2557452
1.2404179
1.225103
1.2097991
1.1945051
1.1792201
1.1639431
1.1486733
1.1334101
1.1181529
1.102901
1.087654
1.0724113
1.0571725
1.0419373
1.0267053
1.0114762
0.9962497
0.98102549
0.96580335
0.95058307
0.93536444
0.92014728
0.90493142
0.88971671
0.87450302
0.85929021
0.84407816
0.82886678
0.81365597
0.79844564
0.78323571
0.76802612
0.7528168
0.73760771
0.72239879
0.70719002
0.69198135
0.67677277
0.66156425
0.64635578
0.63114734
0.61593892
0.60073052
0.58552214
0.57031376
0.55510538
0.53989701
0.52468864
0.50948027
0.49427191
0.47906354
0.46385517
0.44864681
0.43343844
0.41823007
0.40302171
0.38781334
0.37260497
0.35739661
0.34218824
0.32697987
0.31177151
0.29656314
0.28135477
0.26614641
0.25093804
0.23572967
0.22052131
0.20531294
0.19010457
0.17489621
0.15968784
0.14447948
0.12927111
0.11406274
0.098854375
0.083646008
0.068437641
0.053229274
0.038020909
0.022812542
0.0076041781
1.520805
1.5035683
1.4880985
1.4729019
1.4573492
1.4415525
1.425765
1.4100937
1.3945203
1.3789993
1.3635071
1.3480403
1.3326007
1.3171874
1.3017971
1.2864261
1.2710719
1.2557326
1.2404068
1.225093
1.2097902
1.1944971
1.1792129
1.1639366
1.1486675
1.1334049
1.1181482
1.1028968
1.0876501
1.0724078
1.0571694
1.0419346
1.0267028
1.011474
0.99624769
0.98102369
0.96580175
0.95058164
0.93536317
0.92014615
0.90493043
0.88971584
0.87450226
0.85928955
0.84407759
0.8288663
0.81365556
0.79844529
0.78323542
0.76802588
0.75281661
0.73760755
0.72239867
0.70718992
0.69198128
0.67677271
0.66156421
0.64635575
0.63114732
0.61593891
0.60073051
0.58552213
0.57031375
0.55510538
0.53989701
0.52468864
0.50948027
0.49427191
0.47906354
0.46385517
0.44864681
0.43343844
0.41823007
0.40302171
0.38781334
0.37260497
0.35739661
0.34218824
0.32697987
0.31177151
0.29656314
0.28135477
0.26614641
0.25093804
0.23572967
0.22052131
0.20531294
0.19010457
0.17489621
0.15968784
0.14447948
0.12927111
0.11406274
0.098854375
0.083646009
0.068437642
0.053229275
0.03802091
0.022812544
0.0076041791
1.5213991
1.5043366
1.4885412
1.4729795
1.4572562
1.4414475
1.4256948
1.4100438
1.3944726
1.3789503
1.363461
1.3480005
1.3325673
1.3171591
1.3017725
1.2864046
1.2710529
1.2557159
1.240392
1.22508
1.2097786
1.1944868
1.1792036
1.1639283
1.1486601
1.1333982
1.1181422
1.1028914
1.0876453
1.0724035
1.0571655
1.0419311
1.0266997
1.0114712
0.99624522
0.98102149
0.96579979
0.95057991
0.93536164
0.92014481
0.90492925
0.88971482
0.87450137
0.85928878
0.84407694
0.82886574
0.81365509
0.7984449
0.7832351
0.76802562
0.7528164
0.73760739
0.72239854
0.70718982
0.6919812
0.67677266
0.66156417
0.64635572
0.6311473
0.61593889
0.6007305
0.58552212
0.57031375
0.55510538
0.53989701
0.52468864
0.50948027
0.49427191
0.47906354
0.46385517
0.44864681
0.43343844
0.41823007
0.40302171
0.38781334
0.37260497
0.35739661
0.34218824
0.32697987
0.31177151
0.29656314
0.28135477
0.26614641
0.25093804
0.23572967
0.22052131
0.20531294
0.19010457
0.17489621
0.15968784
0.14447948
0.12927111
0.11406274
0.098854375
0.083646009
0.068437642
0.053229276
0.038020911
0.022812545
0.0076041802
1.5220107
1.5050655
1.4888964
1.4729888
1.4571346
1.4413357
1.4256214
1.4099902
1.394423
1.3789023
1.3634179
1.347964
1.3325369
1.3171332
1.30175
1.2863848
1.2710356
1.2557007
1.2403786
1.2250681
1.209768
1.1944774
1.1791952
1.1639208
1.1486534
1.1333923
1.1181369
1.1028867
1.0876411
1.0723998
1.0571622
1.0419281
1.0266971
1.0114689
0.9962432
0.98101972
0.96579825
0.95057857
0.93536048
0.92014381
0.9049284
0.8897141
0.87450076
0.85928828
0.84407652
0.8288654
0.81365481
0.79844468
0.78323493
0.76802549
0.7528163
0.73760731
0.72239848
0.70718978
0.69198117
0.67677264
0.66156415
0.64635571
0.63114729
0.61593889
0.6007305
0.58552212
0.57031375
0.55510538
0.53989701
0.52468864
0.50948027
0.49427191
0.47906354
0.46385517
0.44864681
0.43343844
0.41823007
0.40302171
0.38781334
0.37260497
0.35739661
0.34218824
0.32697987
0.31177151
0.29656314
0.28135477
0.26614641
0.25093804
0.23572967
0.22052131
0.20531294
0.19010457
0.17489621
0.15968784
0.14447948
0.12927111
0.11406274
0.098854376
0.083646009
0.068437643
0.053229277
0.038020912
0.022812546
0.0076041809
1.5223558
1.5054267
1.4889874
1.4728827
1.4569819
1.4412092
1.4255261
1.4099124
1.3943548
1.3788426
1.3633668
1.3479208
1.3325002
1.3171015
1.3017223
1.2863604
1.271014
1.2556815
1.2403616
1.2250529
1.2097545
1.1944653
1.1791844
1.1639112
1.1486448
1.1333846
1.1181301
1.1028806
1.0876357
1.072395
1.057158
1.0419244
1.0266939
1.0114661
0.99624073
0.98101758
0.9657964
0.95057698
0.93535913
0.92014267
0.90492745
0.8897133
0.87450011
0.85928775
0.8440761
0.82886507
0.81365455
0.79844448
0.78323478
0.76802538
0.75281622
0.73760725
0.72239844
0.70718975
0.69198116
0.67677263
0.66156415
0.6463557
0.63114729
0.61593889
0.6007305
0.58552212
0.57031375
0.55510538
0.53989701
0.52468864
0.50948027
0.49427191
0.47906354
0.46385517
0.44864681
0.43343844
0.41823007
0.40302171
0.38781334
0.37260497
0.35739661
0.34218824
0.32697987
0.31177151
0.29656314
0.28135477
0.26614641
0.25093804
0.23572967
0.22052131
0.20531294
0.19010457
0.17489621
0.15968784
0.14447948
0.12927111
0.11406274
0.098854376
0.083646009
0.068437643
0.053229277
0.038020912
0.022812547
0.0076041814
)
;

boundaryField
{
    top
    {
        type            zeroGradient;
    }
    inlet
    {
        type            fixedValue;
        value           uniform 1.53103;
    }
    outlet
    {
        type            fixedValue;
        value           uniform 0;
    }
    bottom
    {
        type            zeroGradient;
    }
    back
    {
        type            empty;
    }
    front
    {
        type            empty;
    }
}


// ************************************************************************* //
