/*--------------------------------*- C++ -*----------------------------------*\
| =========                 |                                                 |
| \\      /  F ield         | OpenFOAM: The Open Source CFD Toolbox           |
|  \\    /   O peration     | Version:  4.1                                   |
|   \\  /    A nd           | Web:      www.OpenFOAM.org                      |
|    \\/     M anipulation  |                                                 |
\*---------------------------------------------------------------------------*/
FoamFile
{
    version     2.0;
    format      ascii;
    class       surfaceScalarField;
    location    "10";
    object      phi;
}
// * * * * * * * * * * * * * * * * * * * * * * * * * * * * * * * * * * * * * //

dimensions      [0 3 -1 0 0 0 0];

internalField   nonuniform List<scalar> 
1890
(
0.0025297559
3.1309856e-06
0.0025198114
9.9449081e-06
0.0025082682
1.1542808e-05
0.002498453
9.8144515e-06
0.002491007
7.4452133e-06
0.0024853053
5.7010425e-06
0.0024806848
4.619935e-06
0.0024767933
3.8910989e-06
0.002473484
3.3088796e-06
0.0024706688
2.81488e-06
0.0024682602
2.4084424e-06
0.0024661746
2.0853916e-06
0.0024643463
1.8281868e-06
0.0024627294
1.6168903e-06
0.0024612919
1.4373652e-06
0.0024600101
1.281803e-06
0.0024588642
1.1458878e-06
0.0024578377
1.0265043e-06
0.0024569168
9.2097698e-07
0.0024560898
8.2706245e-07
0.0024553468
7.4302686e-07
0.0024546793
6.6755021e-07
0.0024540798
5.9959688e-07
0.0024535415
5.383007e-07
0.0024530587
4.8292688e-07
0.0024526259
4.3284012e-07
0.0024522385
3.8749928e-07
0.0024518922
3.4643165e-07
0.002451583
3.0922783e-07
0.0024513076
2.7552184e-07
0.0024510627
2.4499167e-07
0.0024508454
2.1734557e-07
0.0024506532
1.9232473e-07
0.0024504836
1.6969275e-07
0.0024503344
1.4923904e-07
0.0024502037
1.3077092e-07
0.0024500897
1.1411731e-07
0.0024499906
9.9122528e-08
0.002449905
8.5649443e-08
0.0024498315
7.3574304e-08
0.0024497688
6.2788606e-08
0.0024497157
5.319428e-08
0.0024496711
4.470409e-08
0.0024496339
3.7237401e-08
0.0024496032
3.0719402e-08
0.0024495782
2.5077983e-08
0.002449558
2.0242644e-08
0.0024495419
1.6143209e-08
0.0024495293
1.2709002e-08
0.0024495194
9.869592e-09
0.0024495119
7.5543747e-09
0.0024495063
5.6949362e-09
0.0024495021
4.2245804e-09
0.002449499
3.081491e-09
0.0024494968
2.2076801e-09
0.0024494953
1.5522894e-09
0.0024494943
1.0696281e-09
0.0024494935
7.2170724e-10
0.0024494931
4.7569603e-10
0.0024494928
3.0603778e-10
0.0024494926
1.9135975e-10
0.0024494925
1.1623237e-10
0.0024494924
6.7974684e-11
0.0024494924
3.8330238e-11
0.0024494924
2.0404668e-11
0.0024494924
1.0369769e-11
0.0024494924
4.7198658e-12
0.0024494924
2.068687e-12
0.0024494924
6.7868779e-13
0.0024494924
3.6253384e-13
0.0024494924
1.2693231e-13
0.0024494924
3.0565295e-13
0.0024494924
2.206833e-13
0.0024494924
4.2461155e-13
0.0024494924
2.9175094e-13
0.0024494924
4.3448791e-13
0.0024494924
2.6243635e-13
0.0024494924
3.7425438e-13
0.0024494924
1.9046813e-13
0.0024494924
2.903516e-13
0.0024494924
1.2921943e-13
0.0024494924
2.3762509e-13
0.0024494924
1.0000574e-13
0.0024494924
2.136114e-13
0.0024494924
1.1433028e-13
0.0024494924
2.4147628e-13
0.0024494924
1.8512892e-13
0.0024494924
3.1707617e-13
0.0024494924
3.5597732e-13
0.0024494924
5.0415046e-13
0.0024494924
7.4061353e-13
0.0024494924
9.772222e-13
0.0024494924
1.6869496e-12
0.0024494923
2.4262782e-12
0.0024494923
4.6403023e-12
0.0024494923
7.2954275e-12
0.0024494923
1.3495849e-11
0.0024494923
2.130465e-11
0.0024494923
4.0360635e-11
5.7162596e-11
0.0061673665
3.4969462e-06
0.0061631591
1.4152979e-05
0.0061558674
1.8834355e-05
0.0061477022
1.7979005e-05
0.0061399773
1.5169373e-05
0.0061329618
1.2715991e-05
0.0061265761
1.1005155e-05
0.0061207624
9.7043731e-06
0.0061155224
8.5485162e-06
0.0061108508
7.4862734e-06
0.0061067056
6.5533986e-06
0.0061030242
5.7666826e-06
0.0060997445
5.107699e-06
0.0060968151
4.5462573e-06
0.0060941938
4.0585987e-06
0.0060918451
3.6304547e-06
0.0060897381
3.2529174e-06
0.0060878457
2.9188905e-06
0.0060861447
2.6220049e-06
0.006084615
2.3568046e-06
0.0060832391
2.1189052e-06
0.0060820018
1.9048537e-06
0.0060808896
1.7118456e-06
0.0060798905
1.5375259e-06
0.0060789936
1.3798732e-06
0.0060781893
1.2371501e-06
0.006077469
1.1078528e-06
0.0060768248
9.9067485e-07
0.0060762497
8.8446529e-07
0.006075737
7.8820595e-07
0.0060752811
7.0098546e-07
0.0060748765
6.2198854e-07
0.0060745184
5.5047884e-07
0.0060742024
4.8579318e-07
0.0060739244
4.2732989e-07
0.0060736807
3.7454634e-07
0.0060734679
3.2695133e-07
0.006073283
2.8410403e-07
0.0060731231
2.4560839e-07
0.0060729856
2.1111137e-07
0.0060728681
1.8029749e-07
0.0060727685
1.5288503e-07
0.0060726847
1.2861993e-07
0.0060726147
1.0727002e-07
0.0060725568
8.8618984e-08
0.0060725095
7.2460298e-08
0.0060724712
5.8593161e-08
0.0060724406
4.6818118e-08
0.0060724164
3.6936536e-08
0.0060723976
2.8749026e-08
0.0060723831
2.2058456e-08
0.0060723721
1.6670717e-08
0.006072364
1.2399748e-08
0.006072358
9.0689711e-09
0.0060723538
6.5163397e-09
0.0060723507
4.5948446e-09
0.0060723486
3.1760564e-09
0.0060723472
2.1487729e-09
0.0060723463
1.4207811e-09
0.0060723457
9.1590472e-10
0.0060723453
5.7430788e-10
0.0060723451
3.4877824e-10
0.006072345
2.0427569e-10
0.0060723449
1.1431858e-10
0.0060723448
6.0621552e-11
0.0060723448
2.9682132e-11
0.0060723448
1.3071714e-11
0.0060723448
4.5949731e-12
0.0060723448
9.3948811e-13
0.0060723448
-3.4724163e-13
0.0060723448
-4.5186478e-13
0.0060723448
-2.4122883e-13
0.0060723448
1.992454e-13
0.0060723448
4.0498142e-13
0.0060723448
6.8951488e-13
0.0060723448
6.6312921e-13
0.0060723448
7.7766298e-13
0.0060723448
6.3851659e-13
0.0060723448
6.656167e-13
0.0060723448
4.8807947e-13
0.0060723448
5.3021526e-13
0.0060723448
3.8280717e-13
0.0060723448
4.6136628e-13
0.0060723448
3.3056161e-13
0.0060723448
4.991932e-13
0.0060723448
3.973582e-13
0.0060723448
6.7576955e-13
0.0060723448
5.7390761e-13
0.0060723448
1.0690477e-12
0.0060723448
1.0235045e-12
0.0060723448
1.9197972e-12
0.0060723448
2.086051e-12
0.0060723448
3.9412498e-12
0.0060723448
5.2479503e-12
0.0060723448
9.5915356e-12
0.0060723448
1.4289284e-11
0.0060723448
2.3905681e-11
0.0060723448
3.6328609e-11
0.0060723448
5.5941547e-11
7.6865816e-11
0.0086229351
2.5132057e-06
0.0086252782
1.1810303e-05
0.0086270367
1.7075392e-05
0.0086276169
1.7398093e-05
0.0086273634
1.5422205e-05
0.0086265841
1.3494914e-05
0.0086254459
1.2142954e-05
0.0086240602
1.1089673e-05
0.0086225361
1.0072312e-05
0.0086209654
9.0566843e-06
0.0086194098
8.1088922e-06
0.0086179044
7.2719004e-06
0.0086164692
6.5427498e-06
0.0086151161
5.8992891e-06
0.0086138516
5.3230786e-06
0.0086126779
4.8041332e-06
0.008611594
4.3367416e-06
0.0086105971
3.915799e-06
0.0086096831
3.536027e-06
0.0086088474
3.1925145e-06
0.0086080851
2.8811451e-06
0.0086073915
2.5985459e-06
0.0086067615
2.3418723e-06
0.0086061904
2.1086269e-06
0.0086056737
1.8965944e-06
0.0086052071
1.7038027e-06
0.0086047865
1.5285051e-06
0.0086044081
1.3691398e-06
0.0086040683
1.224308e-06
0.0086037638
1.0927426e-06
0.0086034916
9.7329769e-07
0.0086032487
8.6492823e-07
0.0086030325
7.6668493e-07
0.0086028407
6.7769898e-07
0.0086026709
5.9717974e-07
0.008602521
5.2440393e-07
0.0086023893
4.5871558e-07
0.008602274
3.9951801e-07
0.0086021734
3.4627407e-07
0.008602086
2.9849909e-07
0.0086020106
2.5575974e-07
0.0086019459
2.1766601e-07
0.0086018907
1.838674e-07
0.0086018439
1.5404392e-07
0.0086018047
1.2790022e-07
0.0086017721
1.051571e-07
0.0086017451
8.5545741e-08
0.0086017232
6.8802215e-08
0.0086017055
5.4664319e-08
0.0086016914
4.2870689e-08
0.0086016804
3.3160983e-08
0.0086016718
2.5279254e-08
0.0086016652
1.8976501e-08
0.0086016603
1.4016131e-08
0.0086016567
1.0176661e-08
0.008601654
7.2567842e-09
0.0086016521
5.0763713e-09
0.0086016508
3.4795207e-09
0.0086016499
2.3331729e-09
0.0086016493
1.5279222e-09
0.0086016489
9.7467673e-10
0.0086016487
6.0395784e-10
0.0086016485
3.6178721e-10
0.0086016484
2.0841987e-10
0.0086016484
1.1421506e-10
0.0086016484
5.8796523e-11
0.0086016483
2.7533893e-11
0.0086016483
1.1149466e-11
0.0086016483
3.1685415e-12
0.0086016483
3.9307957e-15
0.0086016483
-9.7206218e-13
0.0086016483
-7.6592307e-13
0.0086016483
-3.2238454e-13
0.0086016483
2.2346995e-13
0.0086016483
5.2283045e-13
0.0086016483
8.2146446e-13
0.0086016483
8.4260774e-13
0.0086016483
9.1752901e-13
0.0086016483
7.9961769e-13
0.0086016483
7.8899215e-13
0.0086016483
6.6660049e-13
0.0086016483
6.4990363e-13
0.0086016483
5.831028e-13
0.0086016483
6.0301425e-13
0.0086016483
6.3715913e-13
0.0086016483
6.9945413e-13
0.0086016483
8.630998e-13
0.0086016483
9.8140901e-13
0.0086016483
1.3716153e-12
0.0086016483
1.5884595e-12
0.0086016483
2.4172446e-12
0.0086016483
2.9861458e-12
0.0086016483
4.9034854e-12
0.0086016483
6.8940509e-12
0.0086016483
1.1073319e-11
0.0086016483
1.621994e-11
0.0086016483
2.4201277e-11
0.0086016483
3.5120781e-11
0.0086016483
4.7572496e-11
6.5160717e-11
0.010123344
1.2594352e-06
0.01012873
6.4239581e-06
0.010136092
9.7131064e-06
0.010143247
1.0242369e-05
0.010149379
9.2893345e-06
0.010154594
8.2795513e-06
0.010159145
7.5911468e-06
0.010163166
7.0683731e-06
0.0101667
6.5381412e-06
0.010169781
5.975558e-06
0.010172461
5.4284462e-06
0.010174801
4.9317773e-06
0.010176855
4.4890611e-06
0.010178665
4.0894408e-06
0.010180264
3.7235981e-06
0.010181681
3.3874402e-06
0.010182938
3.0792933e-06
0.010184057
2.7974584e-06
0.010185053
2.5397005e-06
0.010185942
2.3037495e-06
0.010186735
2.0876214e-06
0.010187444
1.8896749e-06
0.010188078
1.7084595e-06
0.010188644
1.5426613e-06
0.010189149
1.3910461e-06
0.0101896
1.2524898e-06
0.010190003
1.1259478e-06
0.010190362
1.0104737e-06
0.010190681
9.0518278e-07
0.010190964
8.0926796e-07
0.010191216
7.2197144e-07
0.010191438
6.4260222e-07
0.010191634
5.7051141e-07
0.010191807
5.0510798e-07
0.010191958
4.4583791e-07
0.010192091
3.9219857e-07
0.010192206
3.4372146e-07
0.010192305
2.9998443e-07
0.010192391
2.6059751e-07
0.010192464
2.2521257e-07
0.010192527
1.9351086e-07
0.010192579
1.6520895e-07
0.010192623
1.4004736e-07
0.010192659
1.177928e-07
0.010192689
9.8227982e-08
0.010192713
8.1150831e-08
0.010192732
6.636689e-08
0.010192747
5.3687464e-08
0.010192759
4.2926034e-08
0.010192768
3.3896809e-08
0.010192775
2.6415684e-08
0.01019278
2.0299775e-08
0.010192784
1.5372052e-08
0.010192786
1.146105e-08
0.010192788
8.4072402e-09
0.010192789
6.061711e-09
0.01019279
4.2925403e-09
0.010192791
2.9815484e-09
0.010192791
2.0295437e-09
0.010192791
1.3511185e-09
0.010192791
8.7875588e-10
0.010192791
5.5632442e-10
0.010192791
3.4241396e-10
0.010192791
2.0332998e-10
0.010192791
1.1636135e-10
0.010192791
6.2980058e-11
0.010192791
3.2265235e-11
0.010192791
1.4769002e-11
0.010192791
6.0555384e-12
0.010192791
1.6292229e-12
0.010192791
2.0720507e-13
0.010192791
-4.1102586e-13
0.010192791
-3.4858467e-14
0.010192791
6.7767984e-14
0.010192791
6.3086729e-13
0.010192791
5.3990108e-13
0.010192791
9.4461525e-13
0.010192791
6.6942702e-13
0.010192791
9.5641731e-13
0.010192791
6.1205837e-13
0.010192791
8.5528776e-13
0.010192791
5.1208347e-13
0.010192791
8.0701154e-13
0.010192791
5.059149e-13
0.010192791
8.8642353e-13
0.010192791
6.229811e-13
0.010192791
1.1544577e-12
0.010192791
9.4500611e-13
0.010192791
1.6731924e-12
0.010192791
1.5553758e-12
0.010192791
2.6410525e-12
0.010192791
2.9234361e-12
0.010192791
4.8060446e-12
0.010192791
6.1577179e-12
0.010192791
9.3464684e-12
0.010192791
1.234058e-11
0.010192791
1.7254955e-11
0.010192791
2.1792588e-11
0.010192791
2.614434e-11
3.7013621e-11
0.010831571
2.7204642e-11
0.010837996
8.4173664e-11
0.010847708
3.768986e-11
0.01085795
1.2467397e-11
0.010867238
5.6335622e-11
0.010875517
1.2459416e-10
0.010883108
1.583093e-10
0.010890176
1.5101317e-10
0.010896713
1.3245534e-10
0.010902688
1.1044424e-10
0.010908117
8.4445861e-11
0.010913048
4.7298701e-11
0.010917537
8.0039701e-12
0.010921627
-3.6184513e-11
0.01092535
-7.3124779e-11
0.010928738
-1.0839037e-10
0.010931817
-1.35916e-10
0.010934615
-1.6076676e-10
0.010937155
-1.7669765e-10
0.010939458
-1.8864625e-10
0.010941546
-1.9154242e-10
0.010943436
-1.911539e-10
0.010945145
-1.831364e-10
0.010946688
-1.7277213e-10
0.010948079
-1.5640062e-10
0.010949332
-1.392792e-10
0.010950458
-1.1825319e-10
0.010951468
-9.7895387e-11
0.010952374
-7.5560787e-11
0.010953183
-5.5390563e-11
0.010953905
-3.5116563e-11
0.010954548
-1.7819576e-11
0.010955118
-1.215865e-12
0.010955623
1.2084496e-11
0.010956069
2.4131804e-11
0.010956462
3.31976e-11
0.010956805
4.152235e-11
0.010957105
4.7650874e-11
0.010957366
5.3560775e-11
0.010957591
5.8285842e-11
0.010957785
6.3322288e-11
0.01095795
6.7847468e-11
0.01095809
7.2743535e-11
0.010958207
7.7396034e-11
0.010958306
8.2112056e-11
0.010958387
8.6413391e-11
0.010958453
9.0120861e-11
0.010958507
9.3021687e-11
0.01095855
9.4681217e-11
0.010958583
9.5231341e-11
0.01095861
9.4094495e-11
0.01095863
9.1731903e-11
0.010958645
8.7588466e-11
0.010958657
8.2488789e-11
0.010958665
7.5883617e-11
0.010958671
6.8781779e-11
0.010958675
6.0682668e-11
0.010958678
5.2770025e-11
0.01095868
4.4481376e-11
0.010958682
3.6938558e-11
0.010958682
2.9509069e-11
0.010958683
2.3297169e-11
0.010958683
1.75054e-11
0.010958684
1.3054936e-11
0.010958684
9.0572366e-12
0.010958684
6.372274e-12
0.010958684
4.0226405e-12
0.010958684
2.7207896e-12
0.010958684
1.5038475e-12
0.010958684
1.1462238e-12
0.010958684
6.0561851e-13
0.010958684
6.8625042e-13
0.010958684
4.0205201e-13
0.010958684
6.5589388e-13
0.010958684
4.8441721e-13
0.010958684
7.0322953e-13
0.010958684
4.9612166e-13
0.010958684
6.8672783e-13
0.010958684
4.8736845e-13
0.010958684
6.5685092e-13
0.010958684
4.2302072e-13
0.010958684
6.2306046e-13
0.010958684
4.4774375e-13
0.010958684
6.9327684e-13
0.010958684
5.3393043e-13
0.010958684
8.6367043e-13
0.010958684
7.9827581e-13
0.010958684
1.2144346e-12
0.010958684
1.1965245e-12
0.010958684
1.7372916e-12
0.010958684
1.9061584e-12
0.010958684
2.7123834e-12
0.010958684
3.1248036e-12
0.010958684
4.2149069e-12
0.010958684
4.7212932e-12
0.010958684
5.1904804e-12
0.010958684
5.2800586e-12
0.010958684
3.4028607e-12
0.010958684
1.7254614e-13
2.4347548e-12
0.010831571
-1.2595306e-06
0.010837995
-6.4243692e-06
0.010847708
-9.7133384e-06
0.010857949
-1.0242311e-05
0.010867238
-9.2891628e-06
0.010875517
-8.27938e-06
0.010883108
-7.5909573e-06
0.010890176
-7.0681561e-06
0.010896713
-6.5379141e-06
0.010902688
-5.9753569e-06
0.010908117
-5.4282973e-06
0.010913048
-4.9316968e-06
0.010917537
-4.4890508e-06
0.010921627
-4.0895031e-06
0.01092535
-3.723727e-06
0.010928738
-3.3876322e-06
0.010931817
-3.079538e-06
0.010934615
-2.7977477e-06
0.010937154
-2.5400204e-06
0.010939458
-2.3040898e-06
0.010941546
-2.0879686e-06
0.010943436
-1.89002e-06
0.010945145
-1.708791e-06
0.010946687
-1.5429725e-06
0.010948079
-1.3913283e-06
0.010949331
-1.2527393e-06
0.010950457
-1.1261595e-06
0.010951468
-1.0106472e-06
0.010952373
-9.0531628e-07
0.010953183
-8.0936403e-07
0.010953905
-7.2203124e-07
0.010954547
-6.4263003e-07
0.010955118
-5.7050995e-07
0.010955623
-5.0508233e-07
0.010956069
-4.4579123e-07
0.010956461
-3.9213533e-07
0.010956805
-3.4364392e-07
0.010957105
-2.9989567e-07
0.010957365
-2.6049853e-07
0.010957591
-2.2510485e-07
0.010957784
-1.9339432e-07
0.010957949
-1.6508405e-07
0.010958089
-1.3991376e-07
0.010958207
-1.1765076e-07
0.010958305
-9.8077602e-08
0.010958387
-8.0992911e-08
0.010958453
-6.6202589e-08
0.010958507
-5.3518436e-08
0.010958549
-4.2754437e-08
0.010958583
-3.3724937e-08
0.01095861
-2.6246363e-08
0.01095863
-2.0135512e-08
0.010958645
-1.5215668e-08
0.010958657
-1.1314595e-08
0.010958665
-8.2729709e-09
0.010958671
-5.9408196e-09
0.010958675
-4.1862581e-09
0.010958678
-2.8898859e-09
0.01095868
-1.9526388e-09
0.010958682
-1.2879714e-09
0.010958683
-8.2856944e-10
0.010958683
-5.1733846e-10
0.010958683
-3.1335608e-10
0.010958684
-1.822197e-10
0.010958684
-1.0185529e-10
0.010958684
-5.3236774e-11
0.010958684
-2.6209025e-11
0.010958684
-1.1044654e-11
0.010958684
-4.0273954e-12
0.010958684
-2.1377233e-13
0.010958684
5.7190099e-13
0.010958684
1.2452113e-12
0.010958684
6.796788e-13
0.010958684
8.8239729e-13
0.010958684
3.0903794e-13
0.010958684
5.086542e-13
0.010958684
1.0504302e-13
0.010958684
3.9884887e-13
0.010958684
7.5719427e-14
0.010958684
3.9490159e-13
0.010958684
8.0535404e-14
0.010958684
4.7853732e-13
0.010958684
1.5469516e-13
0.010958684
6.0982866e-13
0.010958684
2.578035e-13
0.010958684
8.4351538e-13
0.010958684
4.6861244e-13
0.010958684
1.1538126e-12
0.010958684
7.1947749e-13
0.010958684
1.5472277e-12
0.010958684
1.0484672e-12
0.010958684
1.9052076e-12
0.010958684
1.0650794e-12
0.010958684
1.2182045e-12
0.010958684
-6.6854027e-13
0.010958684
-3.0755721e-12
0.010958684
-7.6273883e-12
0.010958684
-1.5496875e-11
0.010958684
-2.4201535e-11
-3.1511873e-11
0.010123344
-2.5131665e-06
0.01012873
-1.1810188e-05
0.010136092
-1.7075409e-05
0.010143247
-1.7398194e-05
0.010149379
-1.5422243e-05
0.010154594
-1.3494856e-05
0.010159145
-1.214284e-05
0.010163166
-1.1089537e-05
0.0101667
-1.007218e-05
0.010169781
-9.0565586e-06
0.010172462
-8.1087904e-06
0.010174802
-7.2718282e-06
0.010176855
-6.5427269e-06
0.010178665
-5.8993141e-06
0.010180264
-5.3231597e-06
0.010181681
-4.8042587e-06
0.010182938
-4.3369131e-06
0.010184056
-3.9160007e-06
0.010185053
-3.5362575e-06
0.010185941
-3.1927573e-06
0.010186735
-2.8813983e-06
0.010187443
-2.5987939e-06
0.010188077
-2.3421138e-06
0.010188643
-2.1088491e-06
0.010189148
-1.8967982e-06
0.0101896
-1.7039782e-06
0.010190002
-1.5286551e-06
0.010190361
-1.3692579e-06
0.01019068
-1.2243993e-06
0.010190963
-1.0928035e-06
0.010191215
-9.7333453e-07
0.010191437
-8.6493965e-07
0.010191633
-7.6667773e-07
0.010191806
-6.7767281e-07
0.010191957
-5.971407e-07
0.01019209
-5.2435181e-07
0.010192205
-4.5865512e-07
0.010192304
-3.9944843e-07
0.01019239
-3.4619836e-07
0.010192463
-2.9841608e-07
0.010192526
-2.556711e-07
0.010192578
-2.1757057e-07
0.010192622
-1.837661e-07
0.010192659
-1.5393625e-07
0.010192688
-1.2778705e-07
0.010192712
-1.0503897e-07
0.010192732
-8.5423758e-08
0.010192747
-6.8678003e-08
0.010192759
-5.4539207e-08
0.010192768
-4.2747072e-08
0.010192775
-3.3040172e-08
0.01019278
-2.5163936e-08
0.010192783
-1.8867547e-08
0.010192786
-1.3916038e-08
0.010192788
-1.0085624e-08
0.010192789
-7.1767088e-09
0.01019279
-5.0065226e-09
0.010192791
-3.4210819e-09
0.010192791
-2.2846236e-09
0.010192791
-1.4897236e-09
0.010192791
-9.4462524e-10
0.010192791
-5.8214483e-10
0.010192791
-3.4577111e-10
0.010192791
-1.9810966e-10
0.010192791
-1.0727214e-10
0.010192791
-5.5219572e-11
0.010192791
-2.5409212e-11
0.010192791
-1.068994e-11
0.010192791
-2.9178603e-12
0.010192791
-3.3629044e-13
0.010192791
1.1143486e-12
0.010192791
5.5072786e-13
0.010192791
7.7505781e-13
0.010192791
4.4131754e-14
0.010192791
2.2793986e-13
0.010192791
-3.3920723e-13
0.010192791
6.1874162e-14
0.010192791
-3.4099404e-13
0.010192791
1.212767e-13
0.010192791
-2.7226425e-13
0.010192791
2.3200271e-13
0.010192791
-1.1092007e-13
0.010192791
3.5025488e-13
0.010192791
2.6837192e-14
0.010192791
4.992315e-13
0.010192791
2.0707495e-13
0.010192791
6.7763198e-13
0.010192791
3.9289517e-13
0.010192791
8.2606252e-13
0.010192791
5.8168576e-13
0.010192791
7.905337e-13
0.010192791
3.7368435e-13
0.010192791
-2.62445e-13
0.010192791
-1.8533884e-12
0.010192791
-4.7610127e-12
0.010192791
-9.7402579e-12
0.010192791
-1.7797843e-11
0.010192791
-2.957601e-11
0.010192791
-4.2266209e-11
-5.8422773e-11
0.0086229346
-3.4969093e-06
0.0086252778
-1.415286e-05
0.0086270365
-1.8834326e-05
0.0086276167
-1.7979166e-05
0.0086273633
-1.5169629e-05
0.008626584
-1.2716197e-05
0.0086254459
-1.1005266e-05
0.0086240603
-9.7044103e-06
0.0086225362
-8.5485149e-06
0.0086209655
-7.4862467e-06
0.0086194098
-6.5533566e-06
0.0086179044
-5.7666346e-06
0.0086164692
-5.107663e-06
0.008615116
-4.546244e-06
0.0086138514
-4.0586162e-06
0.0086126776
-3.6305005e-06
0.0086115936
-3.2529901e-06
0.0086105966
-2.9189829e-06
0.0086096825
-2.622114e-06
0.0086088467
-2.3569229e-06
0.0086080843
-2.1190292e-06
0.0086073906
-1.9049761e-06
0.0086067605
-1.7119633e-06
0.0086061893
-1.5376335e-06
0.0086056725
-1.3799691e-06
0.0086052059
-1.2372307e-06
0.0086047852
-1.107918e-06
0.0086044067
-9.9072305e-07
0.0086040669
-8.8449798e-07
0.0086037624
-7.8822278e-07
0.0086034902
-7.0098888e-07
0.0086032473
-6.2197929e-07
0.0086030311
-5.5045967e-07
0.0086028393
-4.8576502e-07
0.0086026695
-4.2729517e-07
0.0086025198
-3.7450579e-07
0.0086023881
-3.2690663e-07
0.0086022728
-2.840554e-07
0.0086021722
-2.455567e-07
0.0086020849
-2.1105648e-07
0.0086020096
-1.8023978e-07
0.0086019449
-1.5282435e-07
0.0086018898
-1.2855651e-07
0.0086018431
-1.0720399e-07
0.0086018039
-8.8550742e-08
0.0086017714
-7.2390508e-08
0.0086017445
-5.8522439e-08
0.0086017227
-4.6747491e-08
0.008601705
-3.6866787e-08
0.008601691
-2.8681451e-08
0.00860168
-2.199379e-08
0.0086016715
-1.6610149e-08
0.008601665
-1.2343791e-08
0.0086016602
-9.0186222e-09
0.0086016566
-6.4717178e-09
0.008601654
-4.5564865e-09
0.0086016522
-3.1436428e-09
0.0086016509
-2.1224827e-09
0.00860165
-1.399885e-09
0.0086016494
-9.001856e-10
0.0086016491
-5.6277168e-10
0.0086016488
-3.4108093e-10
0.0086016487
-1.9935902e-10
0.0086016486
-1.1180602e-10
0.0086016486
-5.9495583e-11
0.0086016486
-2.9795757e-11
0.0086016485
-1.360945e-11
0.0086016485
-5.5279619e-12
0.0086016485
-1.7631237e-12
0.0086016485
-3.8662724e-13
0.0086016485
1.9308659e-14
0.0086016485
-9.9452014e-14
0.0086016485
-1.5914516e-13
0.0086016485
-3.5026113e-13
0.0086016485
-3.7053105e-13
0.0086016485
-4.0562044e-13
0.0086016485
-2.9983826e-13
0.0086016485
-3.0955894e-13
0.0086016485
-1.9892294e-13
0.0086016485
-1.6769748e-13
0.0086016485
-3.7802718e-14
0.0086016485
-4.6652823e-14
0.0086016485
3.6840599e-14
0.0086016485
8.2666201e-14
0.0086016485
1.5484682e-13
0.0086016485
2.1193982e-13
0.0086016485
2.0291775e-13
0.0086016485
3.4702258e-13
0.0086016485
2.5102465e-13
0.0086016485
3.5334087e-13
0.0086016485
-5.016911e-15
0.0086016486
-1.49182e-13
0.0086016486
-1.5601503e-12
0.0086016486
-2.8946546e-12
0.0086016486
-6.713539e-12
0.0086016485
-1.1025915e-11
0.0086016485
-2.1418665e-11
0.0086016485
-3.2518127e-11
0.0086016486
-4.8721521e-11
-7.0055314e-11
0.0061673662
-3.1308635e-06
0.0061631588
-9.9448735e-06
0.0061558672
-1.1542925e-05
0.0061477021
-9.8147455e-06
0.0061399772
-7.4456286e-06
0.0061329616
-5.7014605e-06
0.006126576
-4.6202577e-06
0.0061207623
-3.8913139e-06
0.0061155223
-3.3090098e-06
0.0061108506
-2.81496e-06
0.0061067054
-2.4084833e-06
0.006103024
-2.0854093e-06
0.0060997443
-1.8281861e-06
0.0060968148
-1.6168877e-06
0.0060941935
-1.437362e-06
0.0060918448
-1.2818072e-06
0.0060897377
-1.1458936e-06
0.0060878452
-1.0265161e-06
0.0060861441
-9.2098801e-07
0.0060846143
-8.2707666e-07
0.0060832384
-7.4303778e-07
0.006082001
-6.6756126e-07
0.0060808888
-5.9960224e-07
0.0060798895
-5.3830384e-07
0.0060789926
-4.8292284e-07
0.0060781883
-4.3283254e-07
0.0060774679
-3.8748427e-07
0.0060768237
-3.4641296e-07
0.0060762485
-3.0920236e-07
0.0060757359
-2.7549331e-07
0.00607528
-2.4495777e-07
0.0060748754
-2.1730979e-07
0.0060745174
-1.922852e-07
0.0060742014
-1.6965251e-07
0.0060739234
-1.4919657e-07
0.0060736797
-1.3072871e-07
0.006073467
-1.1407398e-07
0.0060732821
-9.9079917e-08
0.0060731223
-8.5606383e-08
0.0060729848
-7.3532099e-08
0.0060728674
-6.2746358e-08
0.0060727679
-5.3152824e-08
0.006072684
-4.4662931e-08
0.0060726141
-3.719706e-08
0.0060725563
-3.0679858e-08
0.0060725091
-2.5039462e-08
0.0060724708
-2.0205541e-08
0.0060724403
-1.6107493e-08
0.0060724161
-1.267545e-08
0.0060723974
-9.8378638e-09
0.0060723829
-7.5254406e-09
0.006072372
-5.6681627e-09
0.0060723639
-4.20108e-09
0.006072358
-3.0603357e-09
0.0060723538
-2.1899364e-09
0.0060723508
-1.5368137e-09
0.0060723487
-1.0574009e-09
0.0060723473
-7.114348e-10
0.0060723464
-4.6821399e-10
0.0060723458
-2.9998548e-10
0.0060723455
-1.8752019e-10
0.0060723452
-1.132385e-10
0.0060723451
-6.6556414e-11
0.0060723451
-3.7192625e-11
0.006072345
-2.0319218e-11
0.006072345
-1.0155499e-11
0.006072345
-5.1631871e-12
0.006072345
-2.1063926e-12
0.006072345
-1.1884414e-12
0.006072345
-3.3478261e-13
0.006072345
-4.7766917e-13
0.006072345
-1.1469711e-13
0.006072345
-4.3734932e-13
0.006072345
-1.1682036e-13
0.006072345
-4.1271494e-13
0.006072345
-6.4135465e-14
0.006072345
-3.4277625e-13
0.006072345
-1.1312383e-14
0.006072345
-2.7179961e-13
0.006072345
8.5900513e-14
0.006072345
-2.1328006e-13
0.006072345
1.2768114e-13
0.006072345
-1.7223137e-13
0.006072345
1.9291564e-13
0.006072345
-1.3469279e-13
0.006072345
2.1805601e-13
0.006072345
-1.2261564e-13
0.006072345
2.7239416e-13
0.006072345
-1.4121501e-13
0.006072345
2.4076962e-13
0.006072345
-3.9976281e-13
0.006072345
-1.9815958e-13
0.006072345
-1.6114681e-12
0.006072345
-1.9443394e-12
0.006072345
-4.6290489e-12
0.006072345
-7.1515089e-12
0.006072345
-1.4000612e-11
0.006072345
-1.9917648e-11
0.0060723449
-3.5852514e-11
-5.3275585e-11
0.002529756
0.0025198113
0.002508268
0.0024984529
0.0024910068
0.002485305
0.0024806844
0.0024767928
0.0024734836
0.0024706685
0.0024682599
0.0024661744
0.0024643461
0.0024627292
0.0024612918
0.00246001
0.0024588641
0.0024578376
0.0024569166
0.0024560896
0.0024553466
0.0024546791
0.0024540795
0.0024535412
0.0024530584
0.0024526256
0.0024522382
0.0024518918
0.0024515827
0.0024513072
0.0024510623
0.0024508451
0.0024506528
0.0024504832
0.0024503341
0.0024502034
0.0024500894
0.0024499904
0.0024499048
0.0024498313
0.0024497686
0.0024497155
0.0024496709
0.0024496338
0.0024496031
0.0024495781
0.002449558
0.0024495419
0.0024495292
0.0024495194
0.0024495119
0.0024495063
0.0024495021
0.0024494991
0.0024494969
0.0024494954
0.0024494943
0.0024494936
0.0024494931
0.0024494928
0.0024494927
0.0024494926
0.0024494925
0.0024494925
0.0024494924
0.0024494924
0.0024494924
0.0024494924
0.0024494924
0.0024494924
0.0024494924
0.0024494924
0.0024494924
0.0024494924
0.0024494924
0.0024494924
0.0024494924
0.0024494924
0.0024494924
0.0024494924
0.0024494924
0.0024494924
0.0024494924
0.0024494924
0.0024494924
0.0024494924
0.0024494924
0.0024494924
0.0024494924
0.0024494924
0.0024494924
0.0024494924
0.0024494924
0.0024494924
0.0024494924
0.0024494924
0.0024494924
0.0024494924
0.0024494923
)
;

boundaryField
{
    top
    {
        type            calculated;
        value           uniform 0;
    }
    inlet
    {
        type            calculated;
        value           nonuniform List<scalar> 10(-0.0025328858 -0.0061677319 -0.0086219504 -0.010122089 -0.010830311 -0.01083031 -0.010122089 -0.0086219498 -0.0061677315 -0.0025328865);
    }
    outlet
    {
        type            calculated;
        value           nonuniform List<scalar> 10(0.0024494922 0.0060723447 0.0086016483 0.010192791 0.010958684 0.010958684 0.010192791 0.0086016486 0.0060723449 0.0024494923);
    }
    bottom
    {
        type            calculated;
        value           uniform 0;
    }
    back
    {
        type            empty;
        value           nonuniform 0();
    }
    front
    {
        type            empty;
        value           nonuniform 0();
    }
}


// ************************************************************************* //
