/*--------------------------------*- C++ -*----------------------------------*\
| =========                 |                                                 |
| \\      /  F ield         | OpenFOAM: The Open Source CFD Toolbox           |
|  \\    /   O peration     | Version:  4.1                                   |
|   \\  /    A nd           | Web:      www.OpenFOAM.org                      |
|    \\/     M anipulation  |                                                 |
\*---------------------------------------------------------------------------*/
FoamFile
{
    version     2.0;
    format      ascii;
    class       volVectorField;
    location    "10";
    object      U;
}
// * * * * * * * * * * * * * * * * * * * * * * * * * * * * * * * * * * * * * //

dimensions      [0 1 -1 0 0 0 0];

internalField   nonuniform List<vector> 
1000
(
(0.26219525 0.00025731595 0)
(0.26161152 0.00070770467 0)
(0.26037671 0.00073593211 0)
(0.25919597 0.00053468015 0)
(0.25828978 0.0003392963 0)
(0.25761762 0.00022622492 0)
(0.2570912 0.0001716494 0)
(0.25665423 0.00013999714 0)
(0.25628293 0.00011517677 0)
(0.25596695 9.4795972e-05 0)
(0.25569769 7.944868e-05 0)
(0.25546619 6.8480336e-05 0)
(0.25526452 6.0351428e-05 0)
(0.25508686 5.3777979e-05 0)
(0.25492927 4.8108794e-05 0)
(0.25478891 4.3115008e-05 0)
(0.25466357 3.8708197e-05 0)
(0.2545514 3.4807923e-05 0)
(0.25445083 3.1330314e-05 0)
(0.25436055 2.8205982e-05 0)
(0.25427945 2.5386727e-05 0)
(0.25420659 2.2838229e-05 0)
(0.25414114 2.0532978e-05 0)
(0.25408236 1.8446065e-05 0)
(0.25402961 1.6555348e-05 0)
(0.25398231 1.4841086e-05 0)
(0.25393993 1.3286353e-05 0)
(0.25390203 1.1876044e-05 0)
(0.25386817 1.0596959e-05 0)
(0.25383797 9.4370361e-06 0)
(0.25381109 8.385627e-06 0)
(0.25378722 7.4329406e-06 0)
(0.25376607 6.5703162e-06 0)
(0.25374738 5.7897524e-06 0)
(0.25373092 5.0841658e-06 0)
(0.25371647 4.447025e-06 0)
(0.25370383 3.8725848e-06 0)
(0.25369283 3.3555866e-06 0)
(0.25368331 2.8914407e-06 0)
(0.2536751 2.4759756e-06 0)
(0.25366807 2.1055475e-06 0)
(0.2536621 1.7768189e-06 0)
(0.25365706 1.4868013e-06 0)
(0.25365284 1.2326785e-06 0)
(0.25364935 1.0118005e-06 0)
(0.25364648 8.2156762e-07 0)
(0.25364416 6.5941172e-07 0)
(0.25364229 5.2276069e-07 0)
(0.25364082 4.0902376e-07 0)
(0.25363966 3.1563162e-07 0)
(0.25363877 2.4002898e-07 0)
(0.2536381 1.7976785e-07 0)
(0.25363759 1.3248811e-07 0)
(0.25363722 9.6032001e-08 0)
(0.25363696 6.8396897e-08 0)
(0.25363677 4.7844304e-08 0)
(0.25363664 3.2821152e-08 0)
(0.25363655 2.2070169e-08 0)
(0.25363649 1.4510752e-08 0)
(0.25363645 9.330007e-09 0)
(0.25363643 5.8389942e-09 0)
(0.25363641 3.5649759e-09 0)
(0.2536364 2.101442e-09 0)
(0.2536364 1.208737e-09 0)
(0.25363639 6.6133911e-10 0)
(0.25363639 3.5902554e-10 0)
(0.25363639 1.7894635e-10 0)
(0.25363639 9.8362165e-11 0)
(0.25363639 4.559821e-11 0)
(0.25363639 3.5262655e-11 0)
(0.25363639 1.8249678e-11 0)
(0.25363639 2.4320454e-11 0)
(0.25363639 1.5540468e-11 0)
(0.25363639 2.3054994e-11 0)
(0.25363639 1.3399842e-11 0)
(0.25363639 1.9850528e-11 0)
(0.25363639 9.9378982e-12 0)
(0.25363639 1.6188217e-11 0)
(0.25363639 5.7981004e-12 0)
(0.25363639 1.2434196e-11 0)
(0.25363639 3.1496964e-12 0)
(0.25363639 1.0581775e-11 0)
(0.25363639 1.8237436e-12 0)
(0.25363639 9.8676028e-12 0)
(0.25363639 3.172183e-12 0)
(0.25363639 1.1831315e-11 0)
(0.25363639 7.3096104e-12 0)
(0.25363639 1.673238e-11 0)
(0.25363639 1.7820512e-11 0)
(0.25363639 2.9734162e-11 0)
(0.25363639 4.166779e-11 0)
(0.25363639 6.1466061e-11 0)
(0.25363639 1.0381447e-10 0)
(0.25363639 1.6085669e-10 0)
(0.25363639 3.0718271e-10 0)
(0.25363639 5.0329437e-10 0)
(0.25363639 9.2713534e-10 0)
(0.25363639 1.4717587e-09 0)
(0.25363638 2.6971931e-09 0)
(0.25363638 3.6395419e-09 0)
(0.63845394 0.00032156331 0)
(0.63890603 0.001307369 0)
(0.63807489 0.0017329909 0)
(0.63701694 0.0016096459 0)
(0.63612614 0.001295487 0)
(0.6353843 0.0010255494 0)
(0.63471189 0.00084478571 0)
(0.63408286 0.00071806711 0)
(0.63350553 0.00061425282 0)
(0.63298901 0.00052422405 0)
(0.63253238 0.00044883027 0)
(0.63212846 0.00038817758 0)
(0.63176935 0.00033959659 0)
(0.6314488 0.00029966529 0)
(0.6311621 0.00026583896 0)
(0.6309054 0.00023665097 0)
(0.63067529 0.00021125048 0)
(0.63046876 0.00018901324 0)
(0.63028318 0.00016940899 0)
(0.63011632 0.00015200012 0)
(0.62996624 0.00013644959 0)
(0.62983126 0.00012250234 0)
(0.62970989 0.0001099585 0)
(0.62960083 9.8653074e-05 0)
(0.62950289 8.8446618e-05 0)
(0.62941501 7.9220093e-05 0)
(0.62933626 7.0871889e-05 0)
(0.62926578 6.331416e-05 0)
(0.6292028 5.6470377e-05 0)
(0.62914662 5.0272848e-05 0)
(0.6290966 4.4661544e-05 0)
(0.62905216 3.9582666e-05 0)
(0.62901278 3.4988065e-05 0)
(0.62897797 3.0834264e-05 0)
(0.6289473 2.7082186e-05 0)
(0.62892036 2.3696506e-05 0)
(0.6288968 2.0645574e-05 0)
(0.62887628 1.7900945e-05 0)
(0.62885848 1.5437321e-05 0)
(0.62884314 1.3232122e-05 0)
(0.62883 1.1265316e-05 0)
(0.62881881 9.5189325e-06 0)
(0.62880935 7.9767642e-06 0)
(0.62880142 6.6238459e-06 0)
(0.62879484 5.4461168e-06 0)
(0.62878943 4.4299836e-06 0)
(0.62878503 3.5620839e-06 0)
(0.62878149 2.8290676e-06 0)
(0.62877868 2.2175564e-06 0)
(0.62877647 1.7141747e-06 0)
(0.62877476 1.305692e-06 0)
(0.62877346 9.7923226e-07 0)
(0.62877249 7.2248774e-07 0)
(0.62877177 5.2396955e-07 0)
(0.62877125 3.731667e-07 0)
(0.62877088 2.6072539e-07 0)
(0.62877062 1.7848391e-07 0)
(0.62877044 1.1955043e-07 0)
(0.62877032 7.8201116e-08 0)
(0.62877025 4.9854034e-08 0)
(0.6287702 3.0876725e-08 0)
(0.62877017 1.8517653e-08 0)
(0.62877015 1.0686468e-08 0)
(0.62877014 5.9000117e-09 0)
(0.62877014 3.0730073e-09 0)
(0.62877013 1.4927769e-09 0)
(0.62877013 6.481986e-10 0)
(0.62877013 2.4549018e-10 0)
(0.62877013 6.794361e-11 0)
(0.62877013 1.5282811e-11 0)
(0.62877013 6.0694005e-12 0)
(0.62877013 2.5325695e-11 0)
(0.62877013 3.8291754e-11 0)
(0.62877013 5.6075806e-11 0)
(0.62877013 5.6158249e-11 0)
(0.62877013 6.0793916e-11 0)
(0.62877013 5.2419301e-11 0)
(0.62877013 5.2168214e-11 0)
(0.62877013 4.0606634e-11 0)
(0.62877013 3.881867e-11 0)
(0.62877013 2.9871393e-11 0)
(0.62877013 3.0840284e-11 0)
(0.62877013 2.5126273e-11 0)
(0.62877013 2.7214396e-11 0)
(0.62877013 2.7812674e-11 0)
(0.62877013 3.2666307e-11 0)
(0.62877013 4.0851133e-11 0)
(0.62877013 4.6367581e-11 0)
(0.62877013 7.0254476e-11 0)
(0.62877013 8.0764491e-11 0)
(0.62877013 1.3604706e-10 0)
(0.62877013 1.6231644e-10 0)
(0.62877013 2.9535159e-10 0)
(0.62877013 4.0216846e-10 0)
(0.62877013 7.5211294e-10 0)
(0.62877013 1.1315182e-09 0)
(0.62877013 2.0017671e-09 0)
(0.62877013 3.046964e-09 0)
(0.62877012 5.0849993e-09 0)
(0.62877013 7.428189e-09 0)
(0.89240093 0.00025761655 0)
(0.89379602 0.0012474868 0)
(0.89370649 0.001858832 0)
(0.89337326 0.0019363844 0)
(0.8932493 0.0017390622 0)
(0.89324491 0.001511138 0)
(0.89320646 0.0013367015 0)
(0.89309109 0.0012014421 0)
(0.89292918 0.0010784782 0)
(0.89275675 0.00096012094 0)
(0.89259006 0.00085087916 0)
(0.89243136 0.00075503364 0)
(0.89227962 0.00067259073 0)
(0.8921351 0.00060116789 0)
(0.89199902 0.00053840523 0)
(0.89187235 0.00048278031 0)
(0.89175529 0.0004333482 0)
(0.89164755 0.00038935513 0)
(0.89154865 0.00035009435 0)
(0.89145811 0.00031492691 0)
(0.89137543 0.00028331802 0)
(0.89130011 0.00025483494 0)
(0.89123165 0.00022912193 0)
(0.89116954 0.00020587732 0)
(0.8911133 0.00018484046 0)
(0.89106246 0.0001657851 0)
(0.8910166 0.00014851448 0)
(0.89097529 0.00013285657 0)
(0.89093817 0.00011865965 0)
(0.89090487 0.00010578891 0)
(0.89087507 9.4123756e-05 0)
(0.89084845 8.3555853e-05 0)
(0.89082473 7.3987474e-05 0)
(0.89080365 6.5330254e-05 0)
(0.89078497 5.750414e-05 0)
(0.89076846 5.0436635e-05 0)
(0.89075392 4.4062189e-05 0)
(0.89074116 3.8321719e-05 0)
(0.89073001 3.3162188e-05 0)
(0.8907203 2.8536149e-05 0)
(0.8907119 2.440127e-05 0)
(0.89070467 2.0719711e-05 0)
(0.89069848 1.7457458e-05 0)
(0.89069322 1.458352e-05 0)
(0.89068879 1.2069165e-05 0)
(0.89068508 9.8871141e-06 0)
(0.89068202 8.0109263e-06 0)
(0.8906795 6.4144627e-06 0)
(0.89067746 5.0716519e-06 0)
(0.89067583 3.9563796e-06 0)
(0.89067453 3.0426759e-06 0)
(0.89067352 2.3049764e-06 0)
(0.89067275 1.7185726e-06 0)
(0.89067216 1.2600148e-06 0)
(0.89067172 9.0757102e-07 0)
(0.8906714 6.4153935e-07 0)
(0.89067117 4.445192e-07 0)
(0.89067101 3.0148317e-07 0)
(0.8906709 1.9980507e-07 0)
(0.89067082 1.2911264e-07 0)
(0.89067077 8.1125301e-08 0)
(0.89067074 4.9372214e-08 0)
(0.89067072 2.8951865e-08 0)
(0.89067071 1.6225194e-08 0)
(0.8906707 8.5851055e-09 0)
(0.89067069 4.1930516e-09 0)
(0.89067069 1.8107496e-09 0)
(0.89067069 6.1293007e-10 0)
(0.89067069 8.552926e-11 0)
(0.89067069 -9.8191904e-11 0)
(0.89067069 -1.1499167e-10 0)
(0.89067069 -7.1836018e-11 0)
(0.89067069 -1.3134735e-11 0)
(0.89067069 3.4879622e-11 0)
(0.89067069 6.8540461e-11 0)
(0.89067069 8.2774176e-11 0)
(0.89067069 8.995091e-11 0)
(0.89067069 8.5050687e-11 0)
(0.89067069 8.0172056e-11 0)
(0.89067069 6.8496111e-11 0)
(0.89067069 6.4242119e-11 0)
(0.89067069 5.4522989e-11 0)
(0.89067069 5.5692646e-11 0)
(0.89067069 4.848936e-11 0)
(0.89067069 5.9893708e-11 0)
(0.89067069 5.6397197e-11 0)
(0.89067069 8.0980465e-11 0)
(0.89067069 7.9233715e-11 0)
(0.89067069 1.2679596e-10 0)
(0.89067069 1.3210515e-10 0)
(0.89067069 2.2213668e-10 0)
(0.89067069 2.5501242e-10 0)
(0.89067069 4.4469012e-10 0)
(0.89067069 6.0452269e-10 0)
(0.89067069 1.0298208e-09 0)
(0.89067069 1.5227264e-09 0)
(0.89067069 2.3960103e-09 0)
(0.89067069 3.6093097e-09 0)
(0.89067068 5.2441534e-09 0)
(0.8906707 7.5284899e-09 0)
(1.0475775 0.00015956143 0)
(1.0495416 0.00084713407 0)
(1.0498773 0.0013354543 0)
(1.0499994 0.0014603787 0)
(1.0504528 0.0013669593 0)
(1.0511035 0.0012295697 0)
(1.0517148 0.0011210084 0)
(1.0521978 0.0010367843 0)
(1.0525784 0.0009568606 0)
(1.0529023 0.00087451443 0)
(1.0531921 0.00079372035 0)
(1.0534516 0.00071925914 0)
(1.0536801 0.00065252563 0)
(1.0538798 0.00059257647 0)
(1.054055 0.00053813219 0)
(1.0542099 0.00048841651 0)
(1.0543474 0.00044303642 0)
(1.0544698 0.00040168321 0)
(1.0545789 0.00036401114 0)
(1.0546761 0.00032966379 0)
(1.0547628 0.00029831898 0)
(1.0548402 0.00026970302 0)
(1.0549094 0.00024357906 0)
(1.0549713 0.00021973563 0)
(1.0550266 0.00019797939 0)
(1.0550759 0.00017813448 0)
(1.05512 0.00016004059 0)
(1.0551592 0.0001435524 0)
(1.0551942 0.00012853686 0)
(1.0552253 0.00011487246 0)
(1.0552529 0.00010244726 0)
(1.0552773 9.1158694e-05 0)
(1.0552989 8.0912114e-05 0)
(1.0553179 7.1620755e-05 0)
(1.0553346 6.3204563e-05 0)
(1.0553492 5.5590324e-05 0)
(1.055362 4.8710799e-05 0)
(1.055373 4.2504892e-05 0)
(1.0553826 3.691697e-05 0)
(1.0553907 3.1896944e-05 0)
(1.0553977 2.7399596e-05 0)
(1.0554036 2.3384413e-05 0)
(1.0554086 1.9814796e-05 0)
(1.0554127 1.6657602e-05 0)
(1.0554161 1.3882272e-05 0)
(1.0554188 1.1460213e-05 0)
(1.0554211 9.3640338e-06 0)
(1.0554228 7.5670232e-06 0)
(1.0554242 6.0427525e-06 0)
(1.0554252 4.7648514e-06 0)
(1.055426 3.7070707e-06 0)
(1.0554266 2.8433946e-06 0)
(1.0554271 2.1484738e-06 0)
(1.0554274 1.5979076e-06 0)
(1.0554276 1.1688088e-06 0)
(1.0554277 8.4003069e-07 0)
(1.0554278 5.9263884e-07 0)
(1.0554279 4.0991843e-07 0)
(1.0554279 2.7763503e-07 0)
(1.055428 1.8379476e-07 0)
(1.055428 1.1870754e-07 0)
(1.055428 7.4569588e-08 0)
(1.055428 4.5422597e-08 0)
(1.055428 2.6663836e-08 0)
(1.055428 1.4996285e-08 0)
(1.055428 7.9590523e-09 0)
(1.055428 3.9291412e-09 0)
(1.055428 1.7106666e-09 0)
(1.055428 6.1125138e-10 0)
(1.055428 1.0128413e-10 0)
(1.055428 -5.779642e-11 0)
(1.055428 -9.2882141e-11 0)
(1.055428 -4.0767144e-11 0)
(1.055428 -6.1416172e-12 0)
(1.055428 5.0513245e-11 0)
(1.055428 6.4445854e-11 0)
(1.055428 9.3765301e-11 0)
(1.055428 8.2978423e-11 0)
(1.055428 9.5426724e-11 0)
(1.055428 7.4222846e-11 0)
(1.055428 8.328032e-11 0)
(1.055428 6.0906362e-11 0)
(1.055428 7.5110661e-11 0)
(1.055428 5.6639148e-11 0)
(1.055428 8.0995378e-11 0)
(1.055428 6.6886354e-11 0)
(1.055428 1.0547595e-10 0)
(1.055428 9.7075062e-11 0)
(1.055428 1.5681319e-10 0)
(1.055428 1.5853363e-10 0)
(1.055428 2.5564495e-10 0)
(1.055428 2.9263906e-10 0)
(1.055428 4.7813751e-10 0)
(1.055428 6.4295756e-10 0)
(1.055428 1.002943e-09 0)
(1.055428 1.4247737e-09 0)
(1.055428 2.0544926e-09 0)
(1.055428 2.878606e-09 0)
(1.055428 3.7571187e-09 0)
(1.055428 5.3491182e-09 0)
(1.1208234 5.3462883e-05 0)
(1.1230531 0.00029574654 0)
(1.1235636 0.00047762993 0)
(1.1238698 0.00053263018 0)
(1.1245822 0.00050598467 0)
(1.1255559 0.00046031033 0)
(1.1265096 0.00042408787 0)
(1.127325 0.00039665625 0)
(1.1280212 0.0003704289 0)
(1.128647 0.00034252442 0)
(1.1292269 0.00031433875 0)
(1.1297631 0.0002878049 0)
(1.1302528 0.00026361774 0)
(1.1306972 0.00024153537 0)
(1.1311003 0.00022114761 0)
(1.1314669 0.00020222526 0)
(1.1318006 0.00018468552 0)
(1.1321042 0.00016847405 0)
(1.1323799 0.00015351368 0)
(1.1326301 0.0001397132 0)
(1.1328569 0.00012698599 0)
(1.1330623 0.00011525701 0)
(1.1332481 0.0001044596 0)
(1.133416 9.4531687e-05 0)
(1.1335675 8.5413787e-05 0)
(1.133704 7.7049337e-05 0)
(1.1338269 6.9384794e-05 0)
(1.1339372 6.2369862e-05 0)
(1.1340361 5.5957081e-05 0)
(1.1341246 5.0101824e-05 0)
(1.1342037 4.476201e-05 0)
(1.1342741 3.989821e-05 0)
(1.1343367 3.5473398e-05 0)
(1.1343922 3.1453047e-05 0)
(1.1344413 2.780492e-05 0)
(1.1344845 2.4499141e-05 0)
(1.1345225 2.1508003e-05 0)
(1.1345557 1.8806067e-05 0)
(1.1345846 1.6369981e-05 0)
(1.1346096 1.4178539e-05 0)
(1.1346312 1.2212464e-05 1.8710744e-33)
(1.1346497 1.0454376e-05 0)
(1.1346654 8.8885004e-06 0)
(1.1346787 7.5005351e-06 0)
(1.1346898 6.2772967e-06 0)
(1.134699 5.2065046e-06 0)
(1.1347066 4.27645e-06 0)
(1.1347127 3.4758062e-06 0)
(1.1347177 2.7934141e-06 0)
(1.1347216 2.2182017e-06 0)
(1.1347247 1.7391438e-06 0)
(1.134727 1.3453214e-06 0)
(1.1347288 1.0260403e-06 0)
(1.1347302 7.7097344e-07 0)
(1.1347312 5.7034582e-07 0)
(1.1347319 4.1507363e-07 0)
(1.1347324 2.9692927e-07 0)
(1.1347328 2.0860173e-07 0)
(1.1347331 1.4377689e-07 0)
(1.1347332 9.7095842e-08 0)
(1.1347333 6.4155295e-08 0)
(1.1347334 4.1389593e-08 0)
(1.1347334 2.6014128e-08 0)
(1.1347335 1.5868116e-08 0)
(1.1347335 9.3563231e-09 0)
(1.1347335 5.2903364e-09 0)
(1.1347335 2.848467e-09 0)
(1.1347335 1.4305648e-09 0)
(1.1347335 6.6055239e-10 0)
(1.1347335 2.6482865e-10 0)
(1.1347335 9.4771616e-11 0)
(1.1347335 2.9173737e-11 0)
(1.1347335 2.4838661e-11 0)
(1.1347335 3.1735806e-11 0)
(1.1347335 5.2342701e-11 0)
(1.1347335 6.1775061e-11 0)
(1.1347335 7.3073377e-11 0)
(1.1347335 7.1031823e-11 0)
(1.1347335 7.5004068e-11 0)
(1.1347335 6.7489371e-11 0)
(1.1347335 6.8075186e-11 0)
(1.1347335 6.0239741e-11 0)
(1.1347335 6.5718549e-11 0)
(1.1347335 6.2704933e-11 0)
(1.1347335 7.389223e-11 0)
(1.1347335 7.6865822e-11 0)
(1.1347335 9.8869789e-11 0)
(1.1347335 1.1095999e-10 0)
(1.1347335 1.4495503e-10 0)
(1.1347335 1.6851963e-10 0)
(1.1347335 2.2649535e-10 0)
(1.1347335 2.8068447e-10 0)
(1.1347335 3.923553e-10 2.9480117e-35)
(1.1347335 5.145079e-10 0)
(1.1347335 6.9767032e-10 0)
(1.1347335 8.9078043e-10 8.8440345e-36)
(1.1347335 1.1367416e-09 0)
(1.1347335 1.296593e-09 0)
(1.1347335 1.3745757e-09 0)
(1.1347335 2.0665759e-09 0)
(1.1208233 -5.3463271e-05 0)
(1.1230531 -0.00029574589 0)
(1.1235636 -0.00047762941 0)
(1.1238698 -0.00053262539 0)
(1.1245822 -0.00050596961 0)
(1.1255559 -0.00046028587 0)
(1.1265096 -0.00042405885 0)
(1.127325 -0.00039662725 0)
(1.1280212 -0.00037040181 0)
(1.128647 -0.00034250126 0)
(1.1292269 -0.00031432111 0)
(1.1297631 -0.00028779489 0)
(1.1302529 -0.00026361589 0)
(1.1306972 -0.00024154192 0)
(1.1311003 -0.00022116168 0)
(1.1314669 -0.00020224638 0)
(1.1318006 -0.00018471238 0)
(1.1321042 -0.00016850587 0)
(1.1323799 -0.00015354889 0)
(1.1326301 -0.00013975079 0)
(1.1328568 -0.00012702437 0)
(1.1330622 -0.0001152953 0)
(1.1332481 -0.00010449645 0)
(1.133416 -9.4566433e-05 0)
(1.1335675 -8.5445391e-05 0)
(1.133704 -7.7077462e-05 0)
(1.1338268 -6.9408792e-05 0)
(1.1339371 -6.2389721e-05 0)
(1.1340361 -5.5972524e-05 0)
(1.1341246 -5.0113156e-05 0)
(1.1342036 -4.4769282e-05 0)
(1.1342741 -3.9901926e-05 0)
(1.1343367 -3.5473811e-05 0)
(1.1343922 -3.1450765e-05 0)
(1.1344413 -2.7800245e-05 0)
(1.1344845 -2.4492592e-05 0)
(1.1345225 -2.1499811e-05 0)
(1.1345557 -1.8796603e-05 0)
(1.1345846 -1.6359353e-05 0)
(1.1346096 -1.4166935e-05 0)
(1.1346312 -1.2199875e-05 -1.8710744e-33)
(1.1346497 -1.0440861e-05 0)
(1.1346654 -8.874018e-06 0)
(1.1346786 -7.4851079e-06 0)
(1.1346898 -6.2609275e-06 0)
(1.134699 -5.1892618e-06 0)
(1.1347065 -4.2584529e-06 0)
(1.1347127 -3.4572139e-06 0)
(1.1347176 -2.7744657e-06 0)
(1.1347216 -2.1991302e-06 0)
(1.1347246 -1.7202713e-06 0)
(1.134727 -1.3269114e-06 0)
(1.1347288 -1.0084294e-06 0)
(1.1347302 -7.5438197e-07 0)
(1.1347312 -5.5505383e-07 0)
(1.1347319 -4.0120934e-07 0)
(1.1347324 -2.8466802e-07 0)
(1.1347328 -1.9794141e-07 0)
(1.1347331 -1.3476803e-07 0)
(1.1347332 -8.9618447e-08 0)
(1.1347333 -5.8159445e-08 0)
(1.1347334 -3.6663566e-08 0)
(1.1347334 -2.2446272e-08 0)
(1.1347335 -1.3214808e-08 0)
(1.1347335 -7.4994909e-09 0)
(1.1347335 -3.9926789e-09 0)
(1.1347335 -2.019743e-09 0)
(1.1347335 -8.7830628e-10 0)
(1.1347335 -3.4699952e-10 0)
(1.1347335 -4.0006492e-11 0)
(1.1347335 3.3243894e-11 0)
(1.1347335 1.0170155e-10 0)
(1.1347335 6.3568043e-11 0)
(1.1347335 9.206651e-11 0)
(1.1347335 4.3032401e-11 0)
(1.1347335 7.0493249e-11 0)
(1.1347335 2.4320269e-11 0)
(1.1347335 5.8913977e-11 0)
(1.1347335 1.9152559e-11 0)
(1.1347335 5.5921125e-11 0)
(1.1347335 1.6759075e-11 0)
(1.1347335 5.7858703e-11 0)
(1.1347335 2.3945546e-11 0)
(1.1347335 6.8742128e-11 0)
(1.1347335 3.6186889e-11 0)
(1.1347335 8.8374659e-11 0)
(1.1347335 6.1523711e-11 0)
(1.1347335 1.2151701e-10 0)
(1.1347335 9.6073192e-11 0)
(1.1347335 1.6685535e-10 0)
(1.1347335 1.4791186e-10 0)
(1.1347335 2.3380492e-10 0)
(1.1347335 2.1374906e-10 -2.9480117e-35)
(1.1347335 2.8494299e-10 0)
(1.1347335 2.0317991e-10 0)
(1.1347335 1.1723089e-10 -8.8440345e-36)
(1.1347335 -8.7022537e-11 0)
(1.1347335 -5.8772182e-10 0)
(1.1347335 -1.1903619e-09 0)
(1.1347335 -1.4993488e-09 0)
(1.0475775 -0.0001595623 0)
(1.0495416 -0.00084714739 0)
(1.0498773 -0.0013354733 0)
(1.0499994 -0.001460391 0)
(1.0504528 -0.0013669592 0)
(1.0511035 -0.0012295587 0)
(1.0517148 -0.0011209913 0)
(1.0521978 -0.0010367647 0)
(1.0525784 -0.00095684115 0)
(1.0529023 -0.00087449677 0)
(1.0531921 -0.00079370655 0)
(1.0534516 -0.00071925048 0)
(1.0536801 -0.0006525233 0)
(1.0538798 -0.00059258061 0)
(1.054055 -0.00053814282 0)
(1.0542099 -0.00048843281 0)
(1.0543474 -0.00044305787 0)
(1.0544698 -0.00040170864 0)
(1.0545788 -0.00036403971 0)
(1.054676 -0.00032969417 0)
(1.0547627 -0.0002983503 0)
(1.0548402 -0.00026973405 0)
(1.0549094 -0.00024360909 0)
(1.0549712 -0.00021976367 0)
(1.0550265 -0.00019800498 0)
(1.0550758 -0.00017815696 0)
(1.0551199 -0.00016005978 0)
(1.0551591 -0.00014356796 0)
(1.0551941 -0.00012854892 0)
(1.0552252 -0.00011488101 0)
(1.0552527 -0.00010245264 0)
(1.0552772 -9.1161096e-05 0)
(1.0552988 -8.0911998e-05 0)
(1.0553178 -7.1618391e-05 0)
(1.0553345 -6.3200407e-05 0)
(1.0553491 -5.5584624e-05 0)
(1.0553618 -4.8703897e-05 0)
(1.0553729 -4.2496933e-05 0)
(1.0553825 -3.6908143e-05 0)
(1.0553906 -3.1887279e-05 0)
(1.0553976 -2.7389158e-05 0)
(1.0554035 -2.3373176e-05 0)
(1.0554085 -1.9802775e-05 0)
(1.0554126 -1.6644792e-05 0)
(1.055416 -1.3868714e-05 0)
(1.0554188 -1.144598e-05 0)
(1.055421 -9.3492382e-06 0)
(1.0554228 -7.5518409e-06 0)
(1.0554241 -6.0273657e-06 0)
(1.0554252 -4.7495073e-06 0)
(1.055426 -3.6919881e-06 0)
(1.0554266 -2.8288467e-06 0)
(1.055427 -2.1346596e-06 0)
(1.0554274 -1.5850636e-06 0)
(1.0554276 -1.1570687e-06 0)
(1.0554277 -8.2955543e-07 0)
(1.0554278 -5.8346134e-07 0)
(1.0554279 -4.0209697e-07 0)
(1.0554279 -2.7110192e-07 0)
(1.055428 -1.7851961e-07 0)
(1.055428 -1.1453876e-07 0)
(1.055428 -7.141426e-08 0)
(1.055428 -4.3089224e-08 0)
(1.055428 -2.5043269e-08 0)
(1.055428 -1.3894144e-08 0)
(1.055428 -7.2807973e-09 0)
(1.055428 -3.5118548e-09 0)
(1.055428 -1.5028411e-09 0)
(1.055428 -4.9228122e-10 0)
(1.055428 -6.1984582e-11 0)
(1.055428 9.97239e-11 0)
(1.055428 1.1316174e-10 0)
(1.055428 9.7081035e-11 0)
(1.055428 5.5703426e-11 0)
(1.055428 3.7908627e-11 0)
(1.055428 1.016645e-11 0)
(1.055428 9.0641569e-12 0)
(1.055428 -1.0129522e-12 0)
(1.055428 7.474096e-12 0)
(1.055428 7.5988504e-13 0)
(1.055428 1.157054e-11 0)
(1.055428 1.0869675e-11 0)
(1.055428 2.2577819e-11 0)
(1.055428 2.3702801e-11 0)
(1.055428 3.506309e-11 0)
(1.055428 4.7051369e-11 0)
(1.055428 5.6901419e-11 0)
(1.055428 7.4274723e-11 0)
(1.055428 7.766622e-11 0)
(1.055428 1.0387476e-10 0)
(1.055428 9.5684838e-11 0)
(1.055428 1.1083839e-10 0)
(1.055428 4.9389192e-11 0)
(1.055428 -2.2915931e-11 0)
(1.055428 -2.694721e-10 0)
(1.055428 -6.3180336e-10 0)
(1.055428 -1.2431538e-09 0)
(1.055428 -2.2600014e-09 0)
(1.055428 -3.3669727e-09 0)
(1.055428 -4.7125427e-09 0)
(0.89240088 -0.00025761474 0)
(0.89379598 -0.0012474768 0)
(0.89370645 -0.001858827 0)
(0.89337322 -0.0019363905 0)
(0.89324928 -0.0017390734 0)
(0.89324491 -0.0015111456 0)
(0.89320646 -0.0013367021 0)
(0.89309109 -0.0012014371 0)
(0.89292919 -0.0010784709 0)
(0.89275676 -0.00096011297 0)
(0.89259007 -0.00085087204 0)
(0.89243137 -0.00075502787 0)
(0.89227962 -0.0006725878 0)
(0.89213509 -0.00060116831 0)
(0.89199901 -0.00053840982 0)
(0.89187232 -0.00048278858 0)
(0.89175525 -0.00043336011 0)
(0.89164751 -0.00038936965 0)
(0.8915486 -0.00035011115 0)
(0.89145804 -0.00031494486 0)
(0.89137535 -0.00028333675 0)
(0.89130002 -0.0002548534 0)
(0.89123155 -0.0002291398 0)
(0.89116943 -0.00020589375 0)
(0.89111318 -0.00018485533 0)
(0.89106233 -0.0001657978 0)
(0.89101646 -0.00014852509 0)
(0.89097515 -0.00013286474 0)
(0.89093803 -0.00011866566 0)
(0.89090473 -0.00010579265 0)
(0.89087492 -9.4125607e-05 0)
(0.8908483 -8.3555842e-05 0)
(0.89082459 -7.3986037e-05 0)
(0.89080351 -6.5327471e-05 0)
(0.89078483 -5.75004e-05 0)
(0.89076832 -5.0431996e-05 0)
(0.89075379 -4.4056932e-05 0)
(0.89074103 -3.8315839e-05 0)
(0.89072989 -3.3155842e-05 0)
(0.89072019 -2.8529283e-05 0)
(0.89071179 -2.4393962e-05 0)
(0.89070457 -2.0711907e-05 0)
(0.89069838 -1.7449205e-05 0)
(0.89069313 -1.4574812e-05 0)
(0.89068871 -1.2060064e-05 0)
(0.89068501 -9.8776932e-06 0)
(0.89068195 -8.001281e-06 0)
(0.89067944 -6.4047352e-06 0)
(0.89067741 -5.0619568e-06 0)
(0.89067578 -3.9469025e-06 0)
(0.8906745 -3.0335281e-06 0)
(0.89067349 -2.296347e-06 0)
(0.89067273 -1.710534e-06 0)
(0.89067214 -1.2527278e-06 0)
(0.89067171 -9.0105406e-07 0)
(0.8906714 -6.3589968e-07 0)
(0.89067117 -4.3970224e-07 0)
(0.89067101 -2.9753889e-07 0)
(0.8906709 -1.9662133e-07 0)
(0.89067083 -1.2668901e-07 0)
(0.89067078 -7.9301269e-08 0)
(0.89067075 -4.8123377e-08 0)
(0.89067073 -2.8106253e-08 0)
(0.89067072 -1.5756655e-08 0)
(0.89067072 -8.3244542e-09 0)
(0.89067071 -4.1366146e-09 0)
(0.89067071 -1.8188034e-09 0)
(0.89067071 -7.1087823e-10 0)
(0.89067071 -1.549574e-10 0)
(0.89067071 -2.0352237e-12 0)
(0.89067071 7.3806599e-11 0)
(0.89067071 1.8909934e-11 0)
(0.89067071 2.8173457e-11 0)
(0.89067071 -3.3546058e-11 0)
(0.89067071 -9.5824887e-12 0)
(0.89067071 -5.3032777e-11 0)
(0.89067071 -1.0944068e-11 0)
(0.89067071 -4.4284124e-11 0)
(0.89067071 -1.4097029e-12 0)
(0.89067071 -3.3467191e-11 0)
(0.89067071 1.1756086e-11 0)
(0.89067071 -1.7827699e-11 0)
(0.89067071 2.2258734e-11 0)
(0.89067071 -5.5504241e-12 0)
(0.89067071 3.5541487e-11 0)
(0.89067071 1.483127e-11 0)
(0.89067071 4.7425776e-11 0)
(0.89067071 3.2197231e-11 0)
(0.89067071 5.6100499e-11 0)
(0.89067071 4.6310718e-11 0)
(0.89067071 3.8749701e-11 0)
(0.89067071 3.7437916e-12 0)
(0.89067071 -8.8816107e-11 0)
(0.89067071 -2.4318045e-10 0)
(0.89067071 -5.7895156e-10 0)
(0.89067072 -1.0437605e-09 0)
(0.89067071 -1.9574079e-09 0)
(0.89067072 -3.1483728e-09 0)
(0.89067071 -4.6311757e-09 0)
(0.89067072 -6.8513245e-09 0)
(0.6384539 -0.00032155571 0)
(0.638906 -0.0013073572 0)
(0.63807485 -0.0017329919 0)
(0.63701692 -0.0016096686 0)
(0.63612613 -0.0012955256 0)
(0.63538429 -0.0010255904 0)
(0.63471187 -0.0008448185 0)
(0.63408285 -0.00071808946 0)
(0.63350551 -0.00061426677 0)
(0.632989 -0.00052423241 0)
(0.63253236 -0.00044883439 0)
(0.63212844 -0.00038817895 0)
(0.63176933 -0.00033959642 0)
(0.63144878 -0.00029966523 0)
(0.63116207 -0.00026583968 0)
(0.63090536 -0.00023665306 0)
(0.63067525 -0.0002112536 0)
(0.63046871 -0.00018901737 0)
(0.63028313 -0.00016941362 0)
(0.63011625 -0.00015200516 0)
(0.62996616 -0.00013645455 0)
(0.62983118 -0.00012250711 0)
(0.62970981 -0.00010996263 0)
(0.62960074 -9.8656563e-05 0)
(0.62950279 -8.844914e-05 0)
(0.62941491 -7.9221712e-05 0)
(0.62933615 -7.0872418e-05 0)
(0.62926567 -6.3313759e-05 0)
(0.62920269 -5.6468969e-05 0)
(0.6291465 -5.0270637e-05 0)
(0.62909648 -4.4658525e-05 0)
(0.62905205 -3.957907e-05 0)
(0.62901266 -3.498392e-05 0)
(0.62897786 -3.082977e-05 0)
(0.62894719 -2.7077365e-05 0)
(0.62892026 -2.3691514e-05 0)
(0.6288967 -2.0640409e-05 0)
(0.62887618 -1.78957e-05 0)
(0.6288584 -1.5431975e-05 0)
(0.62884306 -1.3226727e-05 0)
(0.62882992 -1.1259852e-05 0)
(0.62881873 -9.513432e-06 0)
(0.62880928 -7.9712264e-06 0)
(0.62880136 -6.6183026e-06 0)
(0.62879479 -5.4406001e-06 0)
(0.62878938 -4.4245343e-06 0)
(0.62878499 -3.556761e-06 0)
(0.62878145 -2.8239116e-06 0)
(0.62877865 -2.2126422e-06 0)
(0.62877645 -1.7095381e-06 0)
(0.62877475 -1.3014068e-06 0)
(0.62877345 -9.7531055e-07 0)
(0.62877248 -7.1898972e-07 0)
(0.62877177 -5.2088413e-07 0)
(0.62877125 -3.705328e-07 0)
(0.62877088 -2.5849927e-07 0)
(0.62877063 -1.7668509e-07 0)
(0.62877045 -1.1811452e-07 0)
(0.62877034 -7.7130059e-08 0)
(0.62877026 -4.9061109e-08 0)
(0.62877021 -3.0354645e-08 0)
(0.62877018 -1.8177296e-08 0)
(0.62877017 -1.0524286e-08 0)
(0.62877016 -5.8263082e-09 0)
(0.62877015 -3.0942935e-09 0)
(0.62877015 -1.5357397e-09 0)
(0.62877015 -7.34859e-10 0)
(0.62877015 -3.0957976e-10 0)
(0.62877015 -1.4431274e-10 0)
(0.62877015 -5.4700767e-11 0)
(0.62877015 -5.1710053e-11 0)
(0.62877015 -2.9450335e-11 0)
(0.62877015 -4.8755011e-11 0)
(0.62877015 -3.2324244e-11 0)
(0.62877015 -5.0627043e-11 0)
(0.62877015 -2.5784377e-11 0)
(0.62877015 -3.8100841e-11 0)
(0.62877015 -1.4422053e-11 0)
(0.62877015 -2.8872722e-11 0)
(0.62877015 -2.8698149e-12 0)
(0.62877015 -1.66713e-11 0)
(0.62877015 6.3779005e-12 0)
(0.62877015 -1.0884262e-11 0)
(0.62877015 1.5882168e-11 0)
(0.62877015 -1.9984961e-12 0)
(0.62877015 2.2753234e-11 0)
(0.62877015 -7.0175792e-13 0)
(0.62877015 3.0357076e-11 0)
(0.62877015 -7.5116835e-14 0)
(0.62877015 2.9559862e-11 0)
(0.62877015 -3.2789305e-11 0)
(0.62877015 -2.4568068e-11 0)
(0.62877015 -1.7943263e-10 0)
(0.62877015 -2.7792434e-10 0)
(0.62877015 -6.3895238e-10 0)
(0.62877015 -1.0007203e-09 0)
(0.62877015 -1.9487722e-09 0)
(0.62877015 -2.8500199e-09 0)
(0.62877014 -4.5516921e-09 0)
(0.62877015 -6.9171223e-09 0)
(0.26219531 -0.00025730762 0)
(0.26161152 -0.00070770111 0)
(0.26037669 -0.00073594199 0)
(0.25919595 -0.00053470362 0)
(0.25828977 -0.00033932745 0)
(0.2576176 -0.00022625524 0)
(0.25709116 -0.00017167268 0)
(0.25665419 -0.00014001277 0)
(0.25628289 -0.00011518633 0)
(0.25596691 -9.48018e-05 0)
(0.25569766 -7.9451677e-05 0)
(0.25546616 -6.8481633e-05 0)
(0.25526449 -6.0351424e-05 0)
(0.25508684 -5.3777674e-05 0)
(0.25492925 -4.8108248e-05 0)
(0.25478889 -4.311467e-05 0)
(0.25466356 -3.87077e-05 0)
(0.25455138 -3.4807525e-05 0)
(0.25445081 -3.1329669e-05 0)
(0.25436053 -2.8205361e-05 0)
(0.25427943 -2.53858e-05 0)
(0.25420657 -2.283724e-05 0)
(0.25414111 -2.0531639e-05 0)
(0.25408233 -1.8444621e-05 0)
(0.25402958 -1.6553549e-05 0)
(0.25398227 -1.4839169e-05 0)
(0.2539399 -1.328412e-05 0)
(0.25390199 -1.1873726e-05 0)
(0.25386813 -1.0594387e-05 0)
(0.25383793 -9.4344188e-06 0)
(0.25381105 -8.3828326e-06 0)
(0.25378718 -7.4301578e-06 0)
(0.25376603 -6.5674307e-06 0)
(0.25374735 -5.7869205e-06 0)
(0.25373089 -5.081295e-06 0)
(0.25371644 -4.444243e-06 0)
(0.25370381 -3.8698114e-06 0)
(0.25369281 -3.3529157e-06 0)
(0.25368328 -2.8888102e-06 0)
(0.25367508 -2.4734538e-06 0)
(0.25366805 -2.1030912e-06 0)
(0.25366208 -1.7744712e-06 0)
(0.25365704 -1.4845397e-06 0)
(0.25365283 -1.2305276e-06 0)
(0.25364934 -1.0097603e-06 0)
(0.25364647 -8.1964509e-07 0)
(0.25364415 -6.5762173e-07 0)
(0.25364229 -5.2109439e-07 0)
(0.25364081 -4.0751089e-07 0)
(0.25363966 -3.1424897e-07 0)
(0.25363877 -2.3880968e-07 0)
(0.2536381 -1.7867408e-07 0)
(0.2536376 -1.3155826e-07 0)
(0.25363723 -9.5217471e-08 0)
(0.25363696 -6.7733789e-08 0)
(0.25363677 -4.7274644e-08 0)
(0.25363664 -3.2386405e-08 0)
(0.25363655 -2.1706808e-08 0)
(0.25363649 -1.4258029e-08 0)
(0.25363646 -9.1193236e-09 0)
(0.25363643 -5.7148923e-09 0)
(0.25363642 -3.458866e-09 0)
(0.25363641 -2.0581802e-09 0)
(0.2536364 -1.1598069e-09 0)
(0.2536364 -6.5939735e-10 0)
(0.2536364 -3.3800466e-10 0)
(0.2536364 -1.9227202e-10 0)
(0.2536364 -8.1704781e-11 0)
(0.2536364 -6.1050204e-11 0)
(0.2536364 -1.9238787e-11 0)
(0.2536364 -3.127843e-11 0)
(0.2536364 -3.9681723e-12 0)
(0.2536364 -2.5133126e-11 0)
(0.2536364 -2.0203358e-12 0)
(0.2536364 -2.1348192e-11 0)
(0.2536364 4.5341728e-12 0)
(0.2536364 -1.7413492e-11 0)
(0.2536364 6.0370644e-12 0)
(0.2536364 -1.4532946e-11 0)
(0.2536364 9.9976628e-12 0)
(0.2536364 -1.3168733e-11 0)
(0.2536364 9.0765663e-12 0)
(0.2536364 -1.2210979e-11 0)
(0.2536364 1.2128627e-11 0)
(0.2536364 -1.2350865e-11 0)
(0.2536364 1.0755487e-11 0)
(0.2536364 -1.2566947e-11 0)
(0.2536364 1.3066327e-11 0)
(0.2536364 -1.5276347e-11 0)
(0.2536364 7.1873849e-12 0)
(0.2536364 -3.2723571e-11 0)
(0.2536364 -2.76586e-11 0)
(0.2536364 -1.2122869e-10 0)
(0.2536364 -1.6463434e-10 0)
(0.2536364 -3.4105793e-10 0)
(0.2536364 -5.3418787e-10 0)
(0.2536364 -9.9836196e-10 0)
(0.25363639 -1.4420592e-09 0)
(0.25363639 -2.4896416e-09 0)
(0.25363639 -3.44714e-09 0)
)
;

boundaryField
{
    top
    {
        type            fixedValue;
        value           uniform (0 0 0);
    }
    inlet
    {
        type            pressureNormalInletOutletVelocity;
        phi             phi;
        rho             rho;