/*--------------------------------*- C++ -*----------------------------------*\
  =========                 |
  \\      /  F ield         | OpenFOAM: The Open Source CFD Toolbox
   \\    /   O peration     | Website:  https://openfoam.org
    \\  /    A nd           | Version:  6
     \\/     M anipulation  |
\*---------------------------------------------------------------------------*/
FoamFile
{
    version     2.0;
    format      ascii;
    class       volScalarField;
    location    "207";
    object      pMean;
}
// * * * * * * * * * * * * * * * * * * * * * * * * * * * * * * * * * * * * * //

dimensions      [0 2 -2 0 0 0 0];

internalField   nonuniform List<scalar> 
9200
(
-0.39339792
-0.38147043
-0.37082438
-0.3614124
-0.35220606
-0.3432096
-0.33450567
-0.32605918
-0.31779936
-0.3096524
-0.30154485
-0.2934085
-0.28518745
-0.2768452
-0.26837487
-0.25981635
-0.25125064
-0.24276909
-0.2353796
-0.23329608
-0.41173952
-0.39736262
-0.38477897
-0.37383979
-0.3632443
-0.35296589
-0.3430776
-0.33351421
-0.32417416
-0.31495905
-0.3057775
-0.29655071
-0.28721998
-0.27775228
-0.26814532
-0.25843092
-0.24864585
-0.23879598
-0.22955651
-0.22306948
-0.43042532
-0.41358779
-0.39911996
-0.38672671
-0.37479626
-0.36325324
-0.35215006
-0.34138489
-0.33082474
-0.32035199
-0.30986765
-0.29929666
-0.28859415
-0.27774798
-0.26677786
-0.25573036
-0.24465119
-0.23355461
-0.22283879
-0.21361742
-0.44900166
-0.4297325
-0.41345065
-0.39966491
-0.38641614
-0.37356461
-0.36113557
-0.3489917
-0.33697816
-0.32497486
-0.31289698
-0.30069723
-0.28836806
-0.27593869
-0.26346754
-0.2510317
-0.23870289
-0.22652273
-0.21475955
-0.20415934
-0.46681829
-0.44523013
-0.42725458
-0.41215225
-0.39759067
-0.38335623
-0.36944862
-0.35570753
-0.34197834
-0.32816654
-0.31423142
-0.30018108
-0.28606722
-0.27197436
-0.25800591
-0.24426984
-0.23085849
-0.21783004
-0.2053733
-0.19400213
-0.48303167
-0.45934221
-0.43985109
-0.42351973
-0.40763479
-0.39191069
-0.37633599
-0.36075476
-0.34504779
-0.32918269
-0.31319496
-0.29717146
-0.28123499
-0.26552579
-0.25018324
-0.23533128
-0.22106363
-0.20743303
-0.19456492
-0.18280143
-0.4966201
-0.47116506
-0.45039732
-0.4329352
-0.41570404
-0.39836415
-0.38092271
-0.36327021
-0.34536759
-0.32728319
-0.30915544
-0.29116182
-0.27349359
-0.25633249
-0.23983273
-0.22411078
-0.20923864
-0.19524228
-0.18218669
-0.1702761
-0.50640693
-0.47965463
-0.45792219
-0.43945206
-0.42086068
-0.40179021
-0.38231066
-0.3624117
-0.34218229
-0.32182489
-0.30159621
-0.28176207
-0.26256613
-0.24420751
-0.22682921
-0.21051675
-0.19530154
-0.18116922
-0.16812568
-0.15625852
-0.51104054
-0.48352335
-0.46112583
-0.44172145
-0.42171907
-0.40080643
-0.379177
-0.35697608
-0.33445829
-0.31197347
-0.28988781
-0.26853133
-0.24816853
-0.2289847
-0.21108587
-0.1945088
-0.17923449
-0.16520477
-0.15237063
-0.14071948
-0.50916766
-0.4813468
-0.4584513
-0.43807045
-0.41655476
-0.39372181
-0.36995286
-0.34559222
-0.32107091
-0.29686649
-0.27341548
-0.25106587
-0.23006046
-0.21053854
-0.19254991
-0.17607503
-0.16104576
-0.14736638
-0.13494029
-0.1236674
-0.27552188
-0.27993886
-0.2820464
-0.28244324
-0.2818538
-0.28045007
-0.27832485
-0.275572
-0.27226616
-0.26846447
-0.26421357
-0.25955348
-0.25451971
-0.2491447
-0.24345908
-0.23749418
-0.23128341
-0.2248498
-0.21819441
-0.21140739
-0.27841922
-0.28240146
-0.28419243
-0.28436677
-0.28359263
-0.28203332
-0.27977955
-0.27692096
-0.27352829
-0.26965557
-0.26534686
-0.26063989
-0.25556812
-0.25016185
-0.24444897
-0.2384596
-0.23223458
-0.22579525
-0.21903396
-0.2119241
-0.28406284
-0.28719784
-0.28837341
-0.28811274
-0.28697679
-0.28511324
-0.28260877
-0.27954483
-0.27598454
-0.27197587
-0.26755763
-0.26276297
-0.25762127
-0.25215871
-0.24639809
-0.24036637
-0.23411551
-0.22766593
-0.2207159
-0.21299828
-0.2921867
-0.29411318
-0.29440036
-0.29350038
-0.29182663
-0.28950696
-0.28662324
-0.28324587
-0.27942745
-0.27520742
-0.27061715
-0.26568318
-0.26042892
-0.25487451
-0.24903564
-0.2429337
-0.23663203
-0.23015604
-0.22295852
-0.21439399
-0.30245602
-0.30287799
-0.30203806
-0.30030746
-0.29792438
-0.29499577
-0.29159936
-0.28779293
-0.28361673
-0.27910013
-0.27426551
-0.2691305
-0.2637105
-0.2580183
-0.25206122
-0.24585199
-0.23946117
-0.23292774
-0.22545051
-0.21586565
-0.31452392
-0.31321287
-0.31104483
-0.30830972
-0.30505501
-0.30136847
-0.2973259
-0.2929728
-0.28833637
-0.28343347
-0.27827492
-0.27286846
-0.26722011
-0.26133387
-0.25520771
-0.24884297
-0.24230962
-0.2356661
-0.22788869
-0.21718282
-0.32808232
-0.32486835
-0.32120824
-0.31731711
-0.31304492
-0.30846391
-0.30365189
-0.2986417
-0.29344492
-0.28806515
-0.28250101
-0.27674832
-0.27080205
-0.26465637
-0.25830012
-0.2517231
-0.24498799
-0.23817574
-0.23010454
-0.21829023
-0.3428918
-0.33764926
-0.33236867
-0.32719969
-0.32179266
-0.31620752
-0.31052445
-0.30476313
-0.2989196
-0.29298236
-0.28693503
-0.28075869
-0.2744344
-0.26794414
-0.26126726
-0.25438516
-0.24735834
-0.24031377
-0.23202973
-0.2193358
-0.35878072
-0.35140567
-0.34439896
-0.33785475
-0.3312181
-0.32453565
-0.31789206
-0.31129346
-0.30471778
-0.29813543
-0.29151179
-0.28480939
-0.27799034
-0.27101669
-0.26384602
-0.25643336
-0.24880504
-0.24107114
-0.23200973
-0.21816598
-0.37563563
-0.36601361
-0.35716919
-0.34914585
-0.34117152
-0.33327941
-0.32555869
-0.31800002
-0.3105611
-0.30319311
-0.29584343
-0.28845839
-0.2809863
-0.27337765
-0.26557988
-0.2575331
-0.24918517
-0.240338
-0.22937961
-0.21333113
-0.20372439
-0.19417055
-0.18464614
-0.17522709
-0.16585581
-0.15657283
-0.14743428
-0.13847638
-0.1297279
-0.12121666
-0.11296756
-0.10500149
-0.09733581
-0.089984804
-0.082959773
-0.076269097
-0.069918402
-0.063910712
-0.058246597
-0.052924321
-0.047940011
-0.04328783
-0.038960163
-0.034947813
-0.031240199
-0.027825568
-0.024691203
-0.021823623
-0.019208793
-0.016832312
-0.014679597
-0.012736058
-0.010987253
-0.0094190322
-0.0080176753
-0.0067700061
-0.0056635129
-0.0046864374
-0.0038279512
-0.003078055
-0.0024284683
-0.0018704315
-0.0014026249
-0.0010078786
-0.00072680501
-0.0004394532
-0.00052250816
6.9450405e-05
-0.0018094481
0.0027441622
-0.20497238
-0.19499094
-0.18534138
-0.17592817
-0.16652726
-0.15720118
-0.14802636
-0.1390352
-0.13025351
-0.12170979
-0.11342935
-0.10543295
-0.097737906
-0.090358578
-0.083306325
-0.07658957
-0.070213981
-0.064182619
-0.058496079
-0.053152641
-0.048148436
-0.04347762
-0.039132563
-0.035104041
-0.031381442
-0.027952974
-0.024805872
-0.021926608
-0.019301093
-0.01691487
-0.0147533
-0.012801734
-0.011045672
-0.0094709085
-0.0080636645
-0.0068107091
-0.0056994773
-0.004718159
-0.003855876
-0.0031025809
-0.0024499456
-0.0018891659
-0.0014188597
-0.0010218508
-0.00073848159
-0.00044938677
-0.00052861423
6.1559779e-05
-0.0017969935
0.0027149709
-0.20752542
-0.19664032
-0.18674529
-0.17738708
-0.16794275
-0.15853291
-0.14928909
-0.14023389
-0.13138563
-0.12277517
-0.11442936
-0.10636886
-0.098611069
-0.091170718
-0.084059442
-0.077285869
-0.070855843
-0.064772576
-0.059036775
-0.053646795
-0.048598807
-0.043886979
-0.039503661
-0.035439588
-0.031684082
-0.028225269
-0.025050286
-0.022145496
-0.019496691
-0.017089287
-0.014908516
-0.012939596
-0.011167895
-0.009579074
-0.0081592257
-0.0068949932
-0.0057736895
-0.0047833873
-0.0039130964
-0.0031526608
-0.0024936478
-0.0019271523
-0.0014516646
-0.001049974
-0.00076191419
-0.00046919629
-0.00054080746
4.6051115e-05
-0.0017723873
0.0026571681
-0.21113956
-0.19881824
-0.18857017
-0.17939723
-0.16994191
-0.16042813
-0.15110418
-0.14197541
-0.1330437
-0.12434525
-0.11591112
-0.10776214
-0.099916056
-0.092388495
-0.085191847
-0.078335277
-0.071825081
-0.065664851
-0.059855594
-0.054395886
-0.049282046
-0.04450833
-0.040067122
-0.035949137
-0.032143643
-0.028638669
-0.02542123
-0.022477541
-0.019793227
-0.017353524
-0.015143474
-0.013148098
-0.011352564
-0.0097423345
-0.0083033048
-0.0070219255
-0.0058853229
-0.0048813896
-0.0039989625
-0.003227719
-0.002559065
-0.0019839397
-0.0015006406
-0.0010918978
-0.00079679356
-0.00049861244
-0.00055888356
2.3181525e-05
-0.001736069
0.0025719612
-0.21549598
-0.20118472
-0.19048582
-0.18170164
-0.17232449
-0.16271172
-0.15331906
-0.14413271
-0.13512222
-0.12633108
-0.11779945
-0.10954963
-0.10159992
-0.093967543
-0.08666639
-0.079706734
-0.073095754
-0.066837794
-0.060934472
-0.055384836
-0.050185558
-0.045331137
-0.040814108
-0.036625258
-0.03275385
-0.029187853
-0.025914168
-0.022918856
-0.020187352
-0.017704681
-0.015455648
-0.01342503
-0.011597738
-0.0099589783
-0.0084943887
-0.0071901662
-0.0060331897
-0.0050111123
-0.0041125403
-0.0033269278
-0.0026454648
-0.0020588813
-0.0015652172
-0.0011471209
-0.00084268248
-0.00053724856
-0.00058257562
-6.6450931e-06
-0.0016887937
0.0024612345
-0.22016969
-0.20340445
-0.19217603
-0.18401764
-0.17487102
-0.16519874
-0.15576435
-0.14655775
-0.13749766
-0.128629
-0.12000618
-0.11165654
-0.10359968
-0.095854914
-0.088438563
-0.081362851
-0.074636478
-0.068265062
-0.062251281
-0.056595036
-0.051293662
-0.046342155
-0.0417334
-0.037458408
-0.033506558
-0.029865836
-0.026523084
-0.023464234
-0.020674542
-0.018138806
-0.015841577
-0.013767348
-0.011900735
-0.010226638
-0.0087303842
-0.0073978632
-0.0062156513
-0.0051711063
-0.0042525495
-0.0034491578
-0.0027518525
-0.0021511034
-0.0016446288
-0.001214976
-0.00089900503
-0.00058460237
-0.00061154569
-4.2923562e-05
-0.0016315448
0.0023274377
-0.22471502
-0.20526439
-0.19340452
-0.18603847
-0.17734892
-0.16773214
-0.15829794
-0.14911323
-0.14005063
-0.13113939
-0.12244645
-0.11400959
-0.10585229
-0.097996546
-0.090461897
-0.083263565
-0.076412645
-0.0699167
-0.063780038
-0.058003899
-0.052586683
-0.047524209
-0.042809978
-0.038435434
-0.034390226
-0.030662482
-0.027239065
-0.024105834
-0.021247892
-0.018649823
-0.016295911
-0.014170346
-0.012257417
-0.010541678
-0.0090081024
-0.0076422242
-0.0064302672
-0.0053592435
-0.0044171391
-0.0035928038
-0.0028768406
-0.0022594116
-0.0017378515
-0.0012945932
-0.00096503038
-0.00064006301
-0.00064539362
-8.5110129e-05
-0.0015654577
0.0021734369
-0.22884323
-0.20713862
-0.19438882
-0.18757564
-0.17953705
-0.17021223
-0.16086282
-0.15172967
-0.14270563
-0.13379288
-0.12505755
-0.11655052
-0.10830359
-0.10034273
-0.092691173
-0.085367932
-0.07838735
-0.071759604
-0.065491175
-0.059585109
-0.05404127
-0.048856635
-0.044025594
-0.039540246
-0.035390694
-0.031565341
-0.028051176
-0.02483406
-0.021898992
-0.019230362
-0.0168122
-0.014628388
-0.012662865
-0.010899812
-0.0093238173
-0.0079200181
-0.0066742441
-0.0055731178
-0.0046042454
-0.0037561042
-0.0030189338
-0.002382545
-0.0018438295
-0.0013850993
-0.0010400462
-0.00070305829
-0.00068377614
-0.00013273034
-0.0014918043
0.0020024647
-0.230217
-0.20921726
-0.19577643
-0.18855263
-0.18100085
-0.17225728
-0.16318306
-0.15417359
-0.14524715
-0.13639921
-0.12767935
-0.1191466
-0.11084442
-0.10280512
-0.095056353
-0.087621605
-0.080519391
-0.073763416
-0.067363131
-0.061324109
-0.055648329
-0.050334501
-0.045378399
-0.0407732
-0.036509812
-0.032577205
-0.028962729
-0.025652423
-0.022631319
-0.019883717
-0.017393452
-0.015144134
-0.013119372
-0.01130297
-0.0096791098
-0.0082325067
-0.0069485595
-0.0058134596
-0.0048143881
-0.0039394026
-0.0031783302
-0.0025205826
-0.0019625453
-0.0014863941
-0.0011239046
-0.00077334378
-0.00072662943
-0.00018513494
-0.0014123072
0.0018187452
-0.220593
-0.20859341
-0.1970516
-0.18844108
-0.18084499
-0.17289415
-0.16443789
-0.15580178
-0.14716451
-0.13855458
-0.13000297
-0.12156935
-0.11331029
-0.10526913
-0.097481509
-0.089978185
-0.082784467
-0.07592
-0.069399283
-0.063232168
-0.05742424
-0.051977189
-0.046889208
-0.042155402
-0.037768171
-0.0337176
-0.029991827
-0.026577406
-0.023459647
-0.020622937
-0.01805104
-0.01572737
-0.013635241
-0.011758093
-0.010079689
-0.0085842939
-0.0072568356
-0.0060830265
-0.0050495698
-0.004144047
-0.0033558163
-0.0026738309
-0.0020939103
-0.0015980439
-0.0012159628
-0.00084993568
-0.00077335305
-0.00024022303
-0.0013293502
0.0016279704
-0.19886089
-0.20256388
-0.19663854
-0.18728136
-0.17929056
-0.17176713
-0.16377165
-0.15544927
-0.14706296
-0.13867776
-0.13031725
-0.12203693
-0.11389748
-0.10594695
-0.098224516
-0.090764207
-0.083594618
-0.076738468
-0.070213023
-0.06403062
-0.05819905
-0.052721943
-0.047599181
-0.042827314
-0.038399972
-0.034308268
-0.030541187
-0.027085968
-0.023928459
-0.021053462
-0.018445041
-0.01608682
-0.013962239
-0.012054797
-0.010348262
-0.008826855
-0.007475425
-0.0062795748
-0.0052258716
-0.0043017458
-0.003496354
-0.0027985117
-0.0022035421
-0.0016938588
-0.0012963182
-0.00091962737
-0.00081380753
-0.00029482988
-0.0012426714
0.0014385558
-0.18792121
-0.19272972
-0.18865098
-0.17956471
-0.17195117
-0.16523215
-0.1580848
-0.15052058
-0.14282949
-0.13508837
-0.12731198
-0.11955204
-0.11187195
-0.10432385
-0.096950947
-0.089791556
-0.082878765
-0.076239745
-0.069896023
-0.063863965
-0.058155139
-0.052776672
-0.047731653
-0.043019558
-0.038636661
-0.03457645
-0.030830031
-0.027386519
-0.024233414
-0.021356954
-0.01874245
-0.016374589
-0.014237716
-0.012316086
-0.010594093
-0.0090564679
-0.0076884638
-0.0064759992
-0.0054058674
-0.0044656716
-0.0036446035
-0.0029316382
-0.002321581
-0.0017979224
-0.0013834553
-0.00099655798
-0.00085625169
-0.00035872469
-0.0011422327
0.0012330775
-0.17870332
-0.18104952
-0.17821821
-0.17090064
-0.16419595
-0.15821991
-0.15188192
-0.14508748
-0.13809612
-0.13100377
-0.12382765
-0.11661372
-0.10942432
-0.10231367
-0.095327412
-0.088506593
-0.081887585
-0.075501146
-0.06937247
-0.063521568
-0.057963564
-0.052708998
-0.047764187
-0.04313162
-0.038810358
-0.034796443
-0.031083297
-0.027662119
-0.024522266
-0.02165162
-0.019036929
-0.016664128
-0.014518633
-0.012585608
-0.010850209
-0.0092977945
-0.0079141288
-0.0066855347
-0.0055991061
-0.0046426827
-0.0038055319
-0.0030768422
-0.0024508639
-0.0019123224
-0.0014794885
-0.0010815575
-0.00090314875
-0.0004294796
-0.0010315335
0.0010068796
-0.16854419
-0.16845652
-0.16613454
-0.16091218
-0.15547952
-0.15029416
-0.14478828
-0.1388419
-0.13262701
-0.12624444
-0.11972673
-0.11311806
-0.10647759
-0.099860367
-0.093314126
-0.086882221
-0.080603841
-0.074513051
-0.068638581
-0.063004063
-0.057628247
-0.052525231
-0.04770476
-0.043172573
-0.038930782
-0.034978253
-0.031311001
-0.02792258
-0.024804465
-0.021946428
-0.019336882
-0.016963221
-0.014812121
-0.012869825
-0.011122402
-0.0095559704
-0.0081569169
-0.0069120649
-0.0058088878
-0.0048355262
-0.0039813718
-0.0032358615
-0.0025927053
-0.0020378775
-0.0015850571
-0.0011743652
-0.0009554325
-0.00050394875
-0.00091829804
0.00077030274
-0.15751445
-0.15572007
-0.15349804
-0.15000386
-0.14589575
-0.14155959
-0.13688982
-0.13182073
-0.12643317
-0.1208102
-0.11499932
-0.10904721
-0.10300893
-0.096938474
-0.090884688
-0.08489246
-0.079003017
-0.073253123
-0.067674652
-0.062294626
-0.057135318
-0.052214394
-0.047545126
-0.043136678
-0.038994427
-0.035120318
-0.031513228
-0.028169343
-0.025082532
-0.022244723
-0.019646251
-0.017276202
-0.015122732
-0.01317336
-0.011415241
-0.0098354101
-0.0084210092
-0.0071594765
-0.0060387612
-0.0050473804
-0.0041749142
-0.0034110821
-0.0027491035
-0.0021761472
-0.0017014478
-0.0012756134
-0.0010142775
-0.00058107026
-0.00080841264
0.00053151084
-0.14532972
-0.14288237
-0.14084983
-0.13864605
-0.13573402
-0.13227254
-0.12842595
-0.12421206
-0.11965319
-0.11480538
-0.10972303
-0.10445455
-0.099050752
-0.093563202
-0.088040589
-0.082528228
-0.077068253
-0.071699111
-0.066455031
-0.061365825
-0.056456854
-0.05174906
-0.047259084
-0.042999461
-0.038978872
-0.035202444
-0.031672069
-0.028386754
-0.025342977
-0.02253504
-0.019955426
-0.017595137
-0.015444016
-0.013491058
-0.011724687
-0.010133018
-0.0087040971
-0.0074261047
-0.0062875768
-0.0052774973
-0.0043857144
-0.0036022712
-0.0029199782
-0.0023271035
-0.0018287574
-0.0013851937
-0.0010803267
-0.00065996622
-0.00070769093
0.00029906708
-0.13231464
-0.13009053
-0.12846738
-0.12719658
-0.1252716
-0.12265303
-0.11959937
-0.1161924
-0.11243091
-0.1083453
-0.10398825
-0.09940927
-0.094653968
-0.089769225
-0.0848023
-0.079798013
-0.074798331
-0.069842224
-0.06496525
-0.06019918
-0.055571788
-0.051106769
-0.046823743
-0.042738358
-0.03886245
-0.035204266
-0.031768735
-0.028557761
-0.025570545
-0.022803922
-0.020252689
-0.017909946
-0.015767413
-0.013815738
-0.012044793
-0.010443935
-0.0090022636
-0.0077088377
-0.0065528994
-0.0055239999
-0.0046123478
-0.0038083579
-0.0031045409
-0.0024901409
-0.0019666138
-0.0015026851
-0.0011539933
-0.00073981918
-0.00062197323
8.2118309e-05
-0.11917216
-0.1175873
-0.1164997
-0.11590902
-0.11476315
-0.11290882
-0.11059511
-0.10793158
-0.10491394
-0.10155538
-0.097900347
-0.093995908
-0.089884174
-0.085606537
-0.081205892
-0.07672536
-0.072205965
-0.067686185
-0.063201808
-0.058785576
-0.054466846
-0.050271359
-0.046221149
-0.042334532
-0.038626171
-0.035107221
-0.031785516
-0.028665807
-0.025750036
-0.023037629
-0.020525802
-0.018209878
-0.016083595
-0.014139412
-0.012368799
-0.01076251
-0.0093108427
-0.0080038692
-0.0068316616
-0.0057844441
-0.0048528879
-0.0040278356
-0.003301628
-0.0026643525
-0.0021143881
-0.0016275478
-0.0012355131
-0.00082011927
-0.00055638303
-0.00011066068
-0.10642791
-0.10554794
-0.10501169
-0.10493971
-0.10440513
-0.10321381
-0.10156774
-0.099575706
-0.097236523
-0.094554038
-0.091562693
-0.088303856
-0.08481503
-0.081133048
-0.07729617
-0.073343477
-0.06931376
-0.065244211
-0.06116993
-0.057123653
-0.053135403
-0.049232173
-0.04543772
-0.041772449
-0.038253388
-0.034894235
-0.031705468
-0.028694514
-0.025865953
-0.02322177
-0.020761617
-0.018483096
-0.016382054
-0.014452867
-0.012688728
-0.011081917
-0.0096240609
-0.0083063699
-0.0071198673
-0.0060555583
-0.0051046829
-0.0042585759
-0.003509551
-0.0028484167
-0.0022711097
-0.0017590828
-0.0013248585
-0.00090072136
-0.00051459163
-0.0002722222
-0.094355191
-0.094088915
-0.094048502
-0.094386738
-0.094335247
-0.093701727
-0.092639474
-0.091242321
-0.089510936
-0.087444332
-0.08506765
-0.082414941
-0.079518261
-0.076409268
-0.073121611
-0.069690191
-0.066150067
-0.062535959
-0.05888147
-0.055218492
-0.051576845
-0.04798395
-0.044464541
-0.041040463
-0.037730547
-0.034550573
-0.031513294
-0.028628527
-0.025903293
-0.023342005
-0.020946681
-0.018717189
-0.016651507
-0.014745987
-0.012995625
-0.011394323
-0.0099351436
-0.0086105462
-0.007412615
-0.0063332395
-0.005364334
-0.0044977965
-0.0037260617
-0.0030405628
-0.0024354363
-0.0018963998
-0.0014216779
-0.00098177223
-0.00049827468
-0.00039815514
-0.08308682
-0.083298639
-0.083662645
-0.084323001
-0.084651815
-0.084475759
-0.083909409
-0.083027966
-0.081831291
-0.080315277
-0.078497176
-0.076403409
-0.074060052
-0.071493358
-0.068731796
-0.065805798
-0.062746529
-0.059585258
-0.056353078
-0.053080255
-0.049795642
-0.046526307
-0.043297218
-0.040130973
-0.0370476
-0.034064432
-0.031196049
-0.028454296
-0.025848349
-0.023384834
-0.021067991
-0.018899865
-0.016880525
-0.015008301
-0.013280026
-0.011691282
-0.010236643
-0.0089099046
-0.0077043058
-0.0066127132
-0.0056278158
-0.0047421487
-0.0039484145
-0.0032386095
-0.0026056788
-0.002038407
-0.0015252676
-0.0010635681
-0.00050683004
-0.00048740418
-0.07267856
-0.073237095
-0.073905778
-0.074807753
-0.075428717
-0.075617712
-0.075460563
-0.075015296
-0.074279367
-0.073246023
-0.071925936
-0.070338342
-0.068503229
-0.066441365
-0.064175916
-0.061732382
-0.05913768
-0.056419385
-0.053605366
-0.050723429
-0.047800739
-0.044863302
-0.041935612
-0.039040343
-0.03619809
-0.033427172
-0.030743501
-0.028160523
-0.025689217
-0.023338143
-0.021113546
-0.019019495
-0.017058051
-0.015229467
-0.013532399
-0.011964126
-0.010520776
-0.0091975397
-0.0079888833
-0.0068887297
-0.0058906326
-0.004987839
-0.0041734579
-0.0034400272
-0.0027798439
-0.0021838023
-0.0016345598
-0.0011463714
-0.00053744145
-0.00054249592
-0.063139101
-0.063934657
-0.064816648
-0.065886773
-0.066722157
-0.067192765
-0.067362955
-0.067276523
-0.066928225
-0.066308957
-0.06542392
-0.064285972
-0.062909312
-0.061309359
-0.059504054
-0.057513882
-0.055361165
-0.053069457
-0.050663102
-0.048166871
-0.045605548
-0.043003424
-0.040383865
-0.037768972
-0.03517928
-0.032633513
-0.030148384
-0.027738475
-0.02541616
-0.023191598
-0.021072765
-0.019065539
-0.017173818
-0.015399675
-0.013743525
-0.01220432
-0.010779745
-0.0094664183
-0.0082600814
-0.0071557753
-0.0061479945
-0.0052307704
-0.0043977462
-0.0036420148
-0.0029556866
-0.0023310683
-0.0017481352
-0.0012302332
-0.00058551829
-0.0005691304
-0.054451061
-0.055397352
-0.056416012
-0.057590357
-0.058572501
-0.059251006
-0.059673889
-0.059873632
-0.059842752
-0.059570278
-0.059056974
-0.058310274
-0.057339189
-0.056154177
-0.054768222
-0.053196933
-0.051458005
-0.049570735
-0.047555666
-0.045434218
-0.043228299
-0.040959906
-0.038650686
-0.036321565
-0.033992423
-0.031681804
-0.029406682
-0.027182274
-0.02502191
-0.022936959
-0.020936805
-0.019028871
-0.017218684
-0.015509975
-0.013904813
-0.012403756
-0.011006017
-0.0097096366
-0.0085116567
-0.0074082775
-0.0063949954
-0.0054666927
-0.0046176604
-0.0038415892
-0.0031307736
-0.0024784805
-0.0018642665
-0.001314868
-0.00064544981
-0.0005751475
-0.046581406
-0.047612286
-0.048706596
-0.049932551
-0.051004545
-0.051827617
-0.052437291
-0.052857245
-0.05307849
-0.053088832
-0.05288562
-0.052471883
-0.051852225
-0.051032731
-0.050021898
-0.048830789
-0.047472649
-0.045962542
-0.044317069
-0.042554079
-0.040692312
-0.038751039
-0.036749692
-0.034707493
-0.032643114
-0.030574372
-0.02851796
-0.026489223
-0.024501977
-0.02256838
-0.020698857
-0.01890206
-0.017184887
-0.015552526
-0.014008544
-0.012554993
-0.011192545
-0.0099206288
-0.0087375814
-0.0076407816
-0.0066267709
-0.0056913395
-0.0048295236
-0.004035674
-0.0033025522
-0.0026241346
-0.0019809984
-0.0013996136
-0.00071151656
-0.00056906795
-0.039486804
-0.040552856
-0.041676186
-0.042912651
-0.044028533
-0.04494349
-0.045683593
-0.046265816
-0.046680402
-0.046914617
-0.04696338
-0.04682633
-0.046504532
-0.046000422
-0.045318623
-0.04446615
-0.04345216
-0.042287696
-0.040985495
-0.039559767
-0.038025921
-0.036400247
-0.034699597
-0.032941058
-0.031141623
-0.029317882
-0.027485741
-0.025660173
-0.023855003
-0.022082739
-0.020354442
-0.018679644
-0.01706631
-0.015520835
-0.014048082
-0.012651447
-0.011332947
-0.010093332
-0.0089321953
-0.0078480901
-0.0068386247
-0.0059005408
-0.0050296994
-0.0042211806
-0.0034684166
-0.0027659922
-0.0020962537
-0.0014834773
-0.00077873841
-0.00055856862
-0.033118121
-0.034183639
-0.035301726
-0.036518104
-0.037642243
-0.038606718
-0.039430557
-0.04012574
-0.040682375
-0.041087807
-0.041335419
-0.041422415
-0.041347192
-0.041109313
-0.040710233
-0.040153528
-0.039444765
-0.038591345
-0.037602384
-0.036488574
-0.035261986
-0.033935818
-0.032524132
-0.031041577
-0.029503094
-0.027923629
-0.026317854
-0.024699905
-0.023083157
-0.021480021
-0.01990178
-0.018358468
-0.016858778
-0.01541002
-0.014018112
-0.012687594
-0.011421682
-0.010222336
-0.0090903377
-0.008025378
-0.0070261303
-0.0060903127
-0.005214669
-0.004395075
-0.0036257695
-0.0029019402
-0.0022079484
-0.0015652419
-0.00084344145
-0.00054930315
-0.027423803
-0.028464093
-0.029552884
-0.030727577
-0.031833537
-0.03281466
-0.033684787
-0.034452255
-0.035107532
-0.035638531
-0.036037858
-0.036301127
-0.036424875
-0.036406557
-0.036245177
-0.035941548
-0.035498233
-0.034919477
-0.03421116
-0.033380726
-0.032437057
-0.031390299
-0.030251663
-0.029033197
-0.027747542
-0.026407684
-0.025026693
-0.023617471
-0.022192522
-0.020763737
-0.019342213
-0.01793809
-0.016560435
-0.015217153
-0.013914935
-0.012659233
-0.011454272
-0.010303073
-0.009207501
-0.0081683189
-0.0071852339
-0.0062569412
-0.0053811015
-0.0045544378
-0.0037720782
-0.0030298564
-0.0023140911
-0.0016435924
-0.00090341542
-0.00054437368
-0.022352164
-0.023351187
-0.024394856
-0.025513694
-0.026582888
-0.027556174
-0.028443592
-0.029250865
-0.02996916
-0.030587316
-0.031097749
-0.031495188
-0.031775011
-0.031933258
-0.031967177
-0.031875478
-0.031658344
-0.031317418
-0.030855818
-0.030278119
-0.029590298
-0.028799629
-0.027914542
-0.026944463
-0.025899621
-0.024790842
-0.023629328
-0.022426431
-0.02119343
-0.019941324
-0.018680632
-0.017421228
-0.01617219
-0.01494168
-0.013736861
-0.012563833
-0.011427601
-0.010332069
-0.0092800441
-0.0082732592
-0.0073123933
-0.0063970924
-0.0055259389
-0.0046965341
-0.0039049348
-0.0031476801
-0.0024128527
-0.0017172253
-0.00095768202
-0.00054452281
-0.017853237
-0.018801615
-0.019790788
-0.02084555
-0.021865868
-0.022813971
-0.02369711
-0.024519145
-0.025272151
-0.025946102
-0.026533661
-0.027029214
-0.027427551
-0.027723889
-0.027914328
-0.0279961
-0.027967608
-0.027828464
-0.027579537
-0.02722299
-0.026762269
-0.026202058
-0.025548207
-0.024807621
-0.023988129
-0.023098322
-0.022147383
-0.021144897
-0.020100648
-0.019024431
-0.017925859
-0.016814191
-0.015698169
-0.014585883
-0.013484655
-0.012400947
-0.011340302
-0.010307288
-0.0093054857
-0.0083374644
-0.007404781
-0.0065079746
-0.005646525
-0.0048189154
-0.0040221386
-0.0032534918
-0.002502609
-0.0017849254
-0.0010060372
-0.00054885034
-0.013879858
-0.014773234
-0.015703498
-0.016690616
-0.017655167
-0.018566669
-0.019430306
-0.020248609
-0.021014643
-0.021719626
-0.022356746
-0.022920437
-0.023405339
-0.023806313
-0.024118824
-0.024339159
-0.024464493
-0.024492946
-0.024423657
-0.024256851
-0.023993869
-0.023637173
-0.023190315
-0.022657886
-0.022045439
-0.021359375
-0.02060682
-0.019795476
-0.018933462
-0.018029144
-0.017090964
-0.01612727
-0.015146166
-0.014155355
-0.013162017
-0.012172695
-0.0111932
-0.010228543
-0.0092828746
-0.008359443
-0.0074605591
-0.0065875679
-0.0057407917
-0.0049195704
-0.0041218144
-0.0033456129
-0.0025819758
-0.0018456171
-0.0010485887
-0.00055570093
-0.010389107
-0.011226752
-0.012097357
-0.013016751
-0.013922685
-0.014790902
-0.015625032
-0.016426638
-0.017189781
-0.017906926
-0.01857195
-0.019179595
-0.019724652
-0.020201977
-0.020606794
-0.020934887
-0.021182665
-0.021347236
-0.021426491
-0.021419184
-0.021324991
-0.021144543
-0.020879441
-0.020532247
-0.020106447
-0.019606391
-0.019037215
-0.018404735
-0.017715328
-0.016975797
-0.016193228
-0.01537484
-0.014527842
-0.013659284
-0.01277593
-0.011884128
-0.010989708
-0.010097879
-0.0092131564
-0.0083392857
-0.0074791849
-0.0066348911
-0.0058074865
-0.0049971155
-0.0042025647
-0.003422726
-0.0026498583
-0.0018984115
-0.0010854563
-0.00056339228
-0.00734234
-0.0081262369
-0.008939197
-0.009793488
-0.010641164
-0.011463256
-0.012262198
-0.013038833
-0.013788158
-0.014503825
-0.015180464
-0.015813272
-0.016397388
-0.016927895
-0.017400065
-0.017809508
-0.018152244
-0.018424768
-0.01862414
-0.018748066
-0.018794974
-0.018764065
-0.018655357
-0.018469704
-0.0182088
-0.017875161
-0.017472085
-0.017003586
-0.016474321
-0.015889492
-0.015254735
-0.014575994
-0.013859403
-0.01311115
-0.012337349
-0.011543922
-0.010736475
-0.0099201932
-0.0090997422
-0.0082791782
-0.0074618638
-0.0066503947
-0.0058465071
-0.0050510725
-0.0042636923
-0.0034840455
-0.0027055475
-0.0019426797
-0.0011166886
-0.00057062509
-0.0047064988
-0.0054402507
-0.0061993263
-0.0069928631
-0.0077848195
-0.0085607059
-0.0093220166
-0.010069034
-0.010797596
-0.011502438
-0.012178938
-0.012822814
-0.013429652
-0.013994905
-0.014514077
-0.014982842
-0.015397104
-0.015753058
-0.016047272
-0.016276766
-0.016439089
-0.016532383
-0.016555438
-0.016507738
-0.01638949
-0.016201635
-0.015945844
-0.015624493
-0.015240622
-0.014797875
-0.014300427
-0.013752893
-0.013160222
-0.012527599
-0.011860321
-0.011163689
-0.010442887
-0.009702872
-0.0089482665
-0.0081832519
-0.0074114702
-0.0066359312
-0.005858904
-0.0050818905
-0.0043052277
-0.0035293409
-0.0027487234
-0.0019780536
-0.0011422641
-0.0005765595
-0.0024557446
-0.0031445972
-0.0038552112
-0.0045940642
-0.0053349527
-0.0060671236
-0.0067913164
-0.0075073645
-0.008211832
-0.0089004073
-0.0095691626
-0.010214338
-0.010831998
-0.011418032
-0.011968278
-0.01247862
-0.012945034
-0.013363642
-0.013730779
-0.014043065
-0.014297481
-0.014491432
-0.014622808
-0.014690047
-0.014692174
-0.01462884
-0.014500342
-0.01430763
-0.014052294
-0.013736545
-0.013363166
-0.012935463
-0.012457184
-0.011932444
-0.011365626
-0.010761283
-0.010124032
-0.0094584421
-0.0087689263
-0.0080596288
-0.0073343153
-0.0065962665
-0.0058481565
-0.0050920073
-0.004328797
-0.0035596322
-0.0027800003
-0.0020048472
-0.0011624715
-0.00058091518
-0.00056481591
-0.0012141298
-0.001882046
-0.002572655
-0.0032678263
-0.0039599189
-0.0046490652
-0.005334725
-0.006014066
-0.0066835859
-0.0073399695
-0.0079799407
-0.0086000267
-0.0091965537
-0.0097657366
-0.010303743
-0.01080673
-0.011270892
-0.011692509
-0.012068016
-0.012394062
-0.012667575
-0.012885825
-0.013046486
-0.013147688
-0.013188069
-0.013166814
-0.013083683
-0.012939029
-0.012733797
-0.012469517
-0.012148275
-0.011772668
-0.011345749
-0.010870956
-0.010352037
-0.0097929477
-0.0091977622
-0.0085705592
-0.0079153135
-0.0072357796
-0.0065353773
-0.0058170603
-0.0050832561
-0.0043354787
-0.0035754319
-0.0027994995
-0.0020229009
-0.0011770453
-0.00058327206
0.00096275567
0.00034567076
-0.00028708399
-0.00093784861
-0.0015948926
-0.0022530133
-0.0029118477
-0.0035705576
-0.0042267945
-0.0048777118
-0.0055205022
-0.0061523045
-0.0067700535
-0.0073704757
-0.0079501463
-0.0085055315
-0.0090330179
-0.009528946
-0.0099896541
-0.01041153
-0.010791064
-0.011124907
-0.011409933
-0.011643291
-0.011822474
-0.011945369
-0.012010311
-0.012016124
-0.011962161
-0.011848326
-0.011675082
-0.011443457
-0.011155022
-0.010811867
-0.010416545
-0.0099720189
-0.009481583
-0.0089487775
-0.0083772899
-0.0077708478
-0.0071331031
-0.0064675136
-0.0057772061
-0.0050649054
-0.0043325524
-0.0035823475
-0.0028114537
-0.002035322
-0.0011881698
-0.00058475928
0.0021697711
0.0015792347
0.0009752894
0.00035720838
-0.00026826371
-0.00089786818
-0.0015308618
-0.0021661582
-0.0028017758
-0.0034353787
-0.0040645627
-0.004686802
-0.0052993673
-0.0058993227
-0.0064835575
-0.0070488133
-0.0075917042
-0.0081087439
-0.0085963793
-0.0090510316