/*--------------------------------*- C++ -*----------------------------------*\
  =========                 |
  \\      /  F ield         | OpenFOAM: The Open Source CFD Toolbox
   \\    /   O peration     | Website:  https://openfoam.org
    \\  /    A nd           | Version:  6
     \\/     M anipulation  |
\*---------------------------------------------------------------------------*/
FoamFile
{
    version     2.0;
    format      ascii;
    class       volVectorField;
    location    "207";
    object      U;
}
// * * * * * * * * * * * * * * * * * * * * * * * * * * * * * * * * * * * * * //

dimensions      [0 1 -1 0 0 0 0];

internalField   nonuniform List<vector> 
9200
(
(0.0010393464 0.0014199821 -5.9201842e-20)
(0.013676068 -0.0020583671 4.6042533e-20)
(0.038313168 -0.0058665687 -3.8501736e-20)
(0.07227444 -0.009763506 -6.0257749e-20)
(0.11376475 -0.01349003 1.8826964e-20)
(0.16158089 -0.016605659 3.2743879e-20)
(0.21467149 -0.018817287 -1.2268008e-20)
(0.27206609 -0.019973892 9.2688615e-21)
(0.33285624 -0.020011225 1.6803425e-20)
(0.39616349 -0.018929053 1.4848072e-21)
(0.46111557 -0.016779817 -2.1456336e-20)
(0.52683689 -0.013657732 2.0670003e-20)
(0.5924507 -0.0096879984 -4.0422147e-20)
(0.65709133 -0.0050157758 -2.1133901e-20)
(0.71992474 0.00020556316 5.9046525e-21)
(0.78017504 0.0058240978 -2.5131673e-20)
(0.83717062 0.011712816 2.5217109e-20)
(0.89046878 0.017918517 2.2243182e-20)
(0.93967073 0.024573417 -2.9929665e-22)
(0.98205189 0.028293387 -1.6691849e-21)
(0.0052521806 -0.0013462731 -1.7059353e-20)
(0.026962502 -0.0089890266 3.974771e-20)
(0.061670118 -0.014809764 2.3576296e-20)
(0.10629489 -0.019172269 -1.1569758e-19)
(0.15873566 -0.022213996 -1.2727088e-20)
(0.21753352 -0.023720684 7.3297077e-20)
(0.28137297 -0.023595094 -3.5476399e-20)
(0.34900602 -0.021868963 -8.3905565e-21)
(0.41923921 -0.018645521 3.4287539e-20)
(0.49090945 -0.014080837 -4.3259578e-20)
(0.56287233 -0.0083759466 -3.033848e-20)
(0.63400848 -0.0017665896 7.192143e-20)
(0.70324331 0.0054883998 3.8294047e-20)
(0.76957583 0.013118638 -6.7976556e-20)
(0.83211247 0.020852088 1.462369e-20)
(0.89010039 0.02841971 -3.6733399e-20)
(0.94296919 0.035569678 -1.3777192e-20)
(0.99043232 0.04214089 7.0974777e-20)
(1.0323561 0.04771531 2.9642003e-20)
(1.0669348 0.049139688 -8.3478377e-20)
(0.010858427 -0.0040424159 3.6773458e-20)
(0.043953415 -0.015431077 2.5047366e-21)
(0.090515438 -0.022552283 2.2341712e-20)
(0.1471114 -0.026497358 9.8116823e-22)
(0.21134255 -0.027886297 -4.0773937e-20)
(0.28146768 -0.026795114 1.8576402e-20)
(0.35587041 -0.023382727 1.34203e-20)
(0.43299008 -0.017921536 -5.0327702e-20)
(0.51132478 -0.010735649 5.7261857e-20)
(0.58942615 -0.0021838792 1.4256687e-20)
(0.66590917 0.0073479065 -5.4300707e-20)
(0.73948037 0.017460264 -1.8237401e-20)
(0.80897599 0.027756562 9.059163e-21)
(0.87340266 0.03785927 2.3444736e-20)
(0.93197364 0.047424041 -1.1362505e-20)
(0.98413369 0.056148969 2.7877728e-20)
(1.029574 0.063789168 -2.018824e-20)
(1.0682645 0.070204385 -7.0123603e-20)
(1.1003322 0.075119368 -2.3796278e-20)
(1.1249112 0.076641225 4.8659904e-20)
(0.017957215 -0.0064221635 2.4508015e-20)
(0.064776997 -0.0206948 5.1039224e-20)
(0.12485229 -0.028060847 1.9881694e-20)
(0.19446966 -0.030464066 1.2990095e-20)
(0.27094932 -0.029094841 1.7275702e-20)
(0.3522488 -0.024388978 -4.7720171e-20)
(0.4364314 -0.016825972 -2.5646856e-20)
(0.52162009 -0.0069766702 0)
(0.60602897 0.0045670319 1.3920615e-20)
(0.68798708 0.017211731 -5.8523381e-21)
(0.76597519 0.03037392 -9.7934942e-20)
(0.83867448 0.04349963 -1.5774817e-20)
(0.90501527 0.056086614 6.5103193e-20)
(0.96421571 0.067704132 4.8442792e-22)
(1.0158035 0.07800771 -1.5725566e-21)
(1.0596155 0.086746787 2.1957495e-20)
(1.0957773 0.093772222 -5.2647189e-21)
(1.12468 0.099065327 -6.1029736e-20)
(1.1468647 0.10259707 -4.5851236e-20)
(1.1622957 0.10341385 6.952054e-20)
(0.026579421 -0.0082056883 -3.9194205e-21)
(0.089344023 -0.024033506 -5.1256324e-21)
(0.16430754 -0.030264988 5.6599409e-20)
(0.2475812 -0.029810019 1.8539324e-20)
(0.33624161 -0.024513027 -3.1955066e-20)
(0.42795127 -0.015239859 1.216384e-20)
(0.52047263 -0.0028513626 2.6402862e-21)
(0.61166359 0.011737095 3.3609168e-20)
(0.69954713 0.027640142 5.6599503e-21)
(0.78236839 0.044028769 -1.3204739e-20)
(0.85865408 0.060147723 6.0154034e-20)
(0.92726913 0.075340469 -5.8009355e-20)
(0.98745678 0.089072859 -1.3216612e-19)
(1.0388531 0.10094902 -5.5773032e-21)
(1.0814725 0.11071708 8.3150767e-20)
(1.1156655 0.11826405 0)
(1.1420548 0.12360582 1.011896e-20)
(1.1614669 0.12689055 -1.5459768e-20)
(1.1748179 0.1282987 -8.5994545e-21)
(1.1826673 0.12744915 2.0992219e-20)
(0.03666691 -0.0090895798 -5.4309132e-21)
(0.11731511 -0.024685358 4.3578746e-21)
(0.20811869 -0.028140178 -8.7629839e-21)
(0.30515703 -0.023414954 2.8472395e-20)
(0.4053354 -0.013075591 -2.9392663e-20)
(0.50607148 0.0015226157 -1.6927023e-20)
(0.60490491 0.019095141 3.7364233e-20)
(0.69954961 0.038365255 4.7595456e-21)
(0.78800394 0.058167646 -2.4436056e-20)
(0.86863407 0.077483004 6.9867557e-20)
(0.94023975 0.095458642 5.2393974e-22)
(1.0020956 0.11143156 -8.0444312e-20)
(1.0539569 0.1249429 0)
(1.0960273 0.1357375 3.9542114e-20)
(1.1288922 0.14374843 5.5235999e-21)
(1.1534278 0.14906893 -7.7566395e-20)
(1.1706991 0.15191913 -1.9586921e-20)
(1.1818623 0.15262368 -1.246763e-20)
(1.1880592 0.15152606 -1.4709381e-20)
(1.190146 0.14858493 4.0420493e-20)
(0.04805887 -0.0087674053 -1.7277959e-20)
(0.14808311 -0.021931993 -2.2198264e-21)
(0.2551407 -0.020797834 3.0380504e-20)
(0.36546385 -0.010412793 3.748431e-20)
(0.47590422 0.0059015888 -1.9944733e-20)
(0.58374268 0.026269307 -6.916303e-20)
(0.68644187 0.04897721 -2.7995796e-20)
(0.78176205 0.072417789 7.8929209e-20)
(0.86790198 0.095212478 8.5778129e-21)
(0.94358918 0.11624961 -2.4873482e-20)
(1.0081258 0.13469827 1.3642213e-20)
(1.061387 0.15001555 -4.3194487e-21)
(1.1037693 0.16193659 0)
(1.1360975 0.17044428 2.7203481e-20)
(1.1595046 0.17572309 -7.9322408e-20)
(1.1753021 0.17810369 -3.1475526e-20)
(1.184857 0.17800813 8.1054573e-20)
(1.1894921 0.17590945 -4.2969841e-21)
(1.1904029 0.17225558 3.5561074e-21)
(1.188508 0.16719298 2.7111555e-20)
(0.060485252 -0.0069573641 -3.2414615e-20)
(0.18077773 -0.015170381 -8.1624319e-20)
(0.3038893 -0.0075835268 2.5797761e-21)
(0.42642557 0.0097033567 7.016181e-20)
(0.5453515 0.032631554 6.2424376e-20)
(0.65798102 0.058820044 -7.1574522e-20)
(0.76190884 0.086176508 -2.8275176e-22)
(0.85518293 0.11285231 8.5522546e-20)
(0.93645348 0.13737837 4.8828069e-20)
(1.0050415 0.1586937 -5.4218406e-20)
(1.0609356 0.17613563 -9.2334213e-20)
(1.1047243 0.18941354 -3.1589826e-21)
(1.1374759 0.19855944 4.2127865e-20)
(1.1605874 0.20385856 -6.6056278e-21)
(1.1756247 0.20577019 -1.2868787e-20)
(1.1841777 0.20484919 1.9690808e-20)
(1.1877427 0.20167897 4.3880617e-20)
(1.1876453 0.19682588 -4.3859433e-20)
(1.1849954 0.19077884 -1.0232202e-19)
(1.180625 0.1837738 2.4566877e-20)
(0.073537217 -0.0034329736 -3.497975e-20)
(0.21422688 -0.0039890257 -1.7388612e-19)
(0.35251658 0.011839376 8.2103241e-20)
(0.48562799 0.037018337 9.2767515e-20)
(0.61085381 0.066835553 5.7970567e-20)
(0.72576728 0.098481178 8.6107094e-21)
(0.82834804 0.12959696 -1.0624009e-19)
(0.91718999 0.15824269 0)
(0.99162746 0.18302814 -6.8748588e-20)
(1.0517521 0.20311206 -1.5202409e-20)
(1.0983384 0.2181486 5.4703465e-20)
(1.1327008 0.22821082 1.097338e-20)
(1.156511 0.2336926 -4.5613854e-20)
(1.1716068 0.23519947 -4.9081362e-20)
(1.1798204 0.23344335 2.4287679e-20)
(1.182845 0.22915323 4.482289e-20)
(1.1821489 0.22300986 -5.5600408e-20)
(1.178936 0.21560822 -1.0751122e-19)
(1.1741469 0.20742224 -3.1513624e-21)
(1.1684567 0.1987188 2.7046402e-20)
(0.086650448 0.001961386 -3.5448992e-21)
(0.24696019 0.011816634 8.7913242e-20)
(0.3988474 0.03749231 -1.6479246e-20)
(0.54040466 0.071218382 -8.4309148e-20)
(0.66949904 0.10778893 4.5164371e-20)
(0.78421954 0.14411543 4.9175454e-20)
(0.88318941 0.17775669 5.5356782e-21)
(0.96577872 0.2068849 -9.9502489e-20)
(1.0321763 0.23038802 -2.504878e-21)
(1.0833328 0.24781553 5.0503543e-20)
(1.120807 0.25926301 5.9854759e-21)
(1.1465558 0.2652362 -1.9717206e-20)
(1.1627107 0.26650533 -7.5704627e-20)
(1.1713765 0.26396622 -6.2554024e-21)
(1.1744762 0.25852429 4.3533354e-20)
(1.1736548 0.25101088 3.7022013e-20)
(1.1702383 0.24213395 1.9793442e-20)
(1.1652402 0.23245875 -5.2994844e-20)
(1.1594014 0.22240418 1.295745e-20)
(1.1532252 0.21223799 8.2659101e-20)
(-0.0012932615 0.0014346598 -1.1234452e-21)
(-0.0047459604 0.0031874148 2.0646969e-21)
(-0.010771359 0.0041359041 8.7949886e-22)
(-0.017754287 0.004539536 -2.4411024e-21)
(-0.024740318 0.0045654166 -1.411482e-21)
(-0.031299593 0.0043260386 1.5460012e-21)
(-0.037161327 0.0039035381 -6.8700798e-21)
(-0.042147442 0.0033577217 -5.9573038e-21)
(-0.046157776 0.0027313812 1.1171997e-20)
(-0.04914619 0.0020548305 -9.7427481e-21)
(-0.051100654 0.0013493003 -1.9833034e-22)
(-0.052030444 0.00062942184 3.6673439e-21)
(-0.051957737 -9.4889576e-05 -6.3295583e-22)
(-0.050911881 -0.0008169305 2.2818743e-20)
(-0.048925778 -0.0015318448 3.0401098e-22)
(-0.046035342 -0.0022351741 -4.0882871e-20)
(-0.042281798 -0.0029222681 7.5385618e-21)
(-0.037703443 -0.0035910387 2.3864111e-20)
(-0.032308695 -0.0042399867 -4.3852375e-20)
(-0.026156965 -0.0048211133 -2.7739205e-20)
(-0.0016521999 0.0041808663 -5.3716026e-21)
(-0.0053974811 0.0092681383 1.0865439e-20)
(-0.011218509 0.012007444 -1.0191542e-20)
(-0.017658026 0.013153764 3.9229732e-21)
(-0.023856433 0.013195413 4.8121429e-21)
(-0.029433317 0.012462724 7.1324173e-22)
(-0.03415232 0.011197014 -2.2509487e-20)
(-0.037860378 0.0095738968 -2.0370239e-21)
(-0.040474298 0.0077189872 2.0163538e-20)
(-0.041958921 0.0057212303 -5.0473596e-21)
(-0.04230895 0.0036428644 -2.1762588e-20)
(-0.041537337 0.0015267126 4.8973166e-21)
(-0.039667713 -0.00059830553 2.263542e-20)
(-0.036729082 -0.0027127611 1.030839e-20)
(-0.032752034 -0.0048026892 2.1854284e-20)
(-0.027769172 -0.0068555085 -1.9770728e-20)
(-0.021824797 -0.0088582197 -2.1672943e-20)
(-0.014966273 -0.010804225 2.1184617e-20)
(-0.0071290206 -0.012679001 2.6810364e-20)
(0.0018742912 -0.014317223 1.5854765e-20)
(-0.0023034292 0.0065602327 -4.3568688e-21)
(-0.0065392239 0.014480196 -5.6387548e-21)
(-0.011892131 0.018710543 3.0723948e-22)
(-0.017211099 0.02042818 1.0959883e-21)
(-0.021819142 0.020400323 6.6918399e-21)
(-0.025431041 0.019151666 1.0665168e-20)
(-0.027877231 0.017066287 -3.7227633e-21)
(-0.029053269 0.014423783 -1.8896163e-20)
(-0.028909036 0.011424352 6.5413167e-21)
(-0.02743105 0.0082099049 1.2862569e-20)
(-0.024627714 0.0048797758 5.8340849e-21)
(-0.020520109 0.0015022384 1.8159104e-20)
(-0.015135987 -0.0018768635 1.7295914e-21)
(-0.0085054003 -0.005227248 -3.3864526e-20)
(-0.00065689511 -0.0085276103 1.2020172e-21)
(0.0083810139 -0.011759109 -2.2139209e-20)
(0.018556863 -0.014904096 -2.4466302e-20)
(0.029802175 -0.017953752 4.5819709e-20)
(0.042304957 -0.020855117 2.5349346e-20)
(0.056738562 -0.023247766 1.2239293e-22)
(-0.0031290276 0.0083689701 -5.283307e-21)
(-0.0078963989 0.018336513 -8.4815264e-21)
(-0.012438986 0.023587809 4.3593047e-21)
(-0.016026535 0.025609658 4.1463449e-21)
(-0.018235024 0.025382745 2.0105707e-21)
(-0.018912651 0.023589321 7.3209949e-21)
(-0.017984717 0.020730273 9.3124771e-21)
(-0.01541671 0.017170377 -1.3511353e-21)
(-0.011207048 0.013171314 -1.1481946e-20)
(-0.005375235 0.0089189313 -2.9071875e-20)
(0.002048109 0.0045434369 6.1892426e-23)
(0.011026504 0.00013431071 4.0697818e-20)
(0.02152222 -0.0042489512 -1.838317e-20)
(0.033497844 -0.0085675852 -1.2296087e-20)
(0.046920503 -0.012795546 5.5348935e-22)
(0.061760084 -0.016911855 3.2302642e-20)
(0.077953 -0.02090167 -1.4829543e-20)
(0.095392249 -0.024763375 -5.333918e-20)
(0.11439843 -0.028379717 4.5765006e-20)
(0.13634536 -0.031073094 3.3013168e-20)
(-0.0039704096 0.0094657323 -6.8788994e-22)
(-0.009091658 0.020487792 -1.253474e-20)
(-0.012364471 0.026159087 -3.4144533e-20)
(-0.01355254 0.028143338 -5.7241616e-21)
(-0.01253324 0.027555007 -3.6222741e-21)
(-0.0093167247 0.025188064 6.3051031e-21)
(-0.0039456453 0.021627411 -4.6461955e-21)
(0.0035261273 0.017298959 -8.8070263e-21)
(0.01303682 0.012508752 2.1899708e-20)
(0.02452124 0.0074744425 5.0567069e-21)
(0.037915536 0.0023489038 -2.5290292e-20)
(0.053157442 -0.0027627843 1.1078277e-20)
(0.070186864 -0.0077908749 0)
(0.088946577 -0.012691303 1.2089575e-20)
(0.10938543 -0.01743692 -9.7016171e-21)
(0.13145741 -0.022009897 -1.4337118e-20)
(0.15507406 -0.026408646 -1.5738945e-21)
(0.18006759 -0.030659421 -2.2181553e-21)
(0.20685341 -0.034576534 4.6147062e-20)
(0.23766358 -0.037019868 -1.0470127e-20)
(-0.0046450979 0.0097808624 -7.5356677e-21)
(-0.0096772509 0.02074788 2.4516399e-20)
(-0.01106438 0.026160977 -1.0499346e-20)
(-0.0090968327 0.027724445 -2.746928e-20)
(-0.003979721 0.026601695 -2.7548145e-20)
(0.0040961826 0.023648408 -1.4921568e-20)
(0.014954149 0.019496457 -6.9059595e-22)
(0.028436235 0.014604705 5.5499779e-21)
(0.044403146 0.0093034466 1.9615877e-20)
(0.062730495 0.0038284154 7.3530849e-21)
(0.083304315 -0.0016547552 -7.1862206e-21)
(0.10601897 -0.0070322388 -2.0102307e-21)
(0.13077357 -0.012229098 -3.8191707e-20)
(0.15746943 -0.017199753 -1.2693644e-20)
(0.18601199 -0.021919735 1.8750605e-20)
(0.21631177 -0.026379718 -2.1021672e-20)
(0.24823223 -0.030602223 -8.973057e-21)
(0.28151867 -0.034670608 3.0440464e-20)
(0.31660704 -0.03836482 5.047207e-20)
(0.35665015 -0.0399641 3.3559668e-21)
(-0.0049617684 0.0093139988 1.6783304e-20)
(-0.0091662693 0.01909771 1.4467938e-20)
(-0.0078593649 0.023563366 5.1145485e-20)
(-0.0018585395 0.024328944 2.338798e-20)
(0.0082957229 0.022523783 1.8251773e-22)
(0.02222194 0.019014385 -3.9388453e-20)
(0.039597442 0.014440936 -2.4313858e-20)
(0.060147904 0.0092663595 1.0465816e-20)
(0.083639115 0.0038232281 1.4401585e-20)
(0.10986669 -0.0016512993 -1.311371e-20)
(0.13864563 -0.0069910097 -4.4038712e-20)
(0.1698017 -0.012082847 2.9618496e-20)
(0.20316405 -0.016854159 2.002055e-20)
(0.23855946 -0.021263995 -2.7551154e-20)
(0.2758123 -0.025296403 1.1650134e-20)
(0.31474811 -0.028957168 2.4197611e-20)
(0.35514546 -0.032303052 8.0723935e-21)
(0.39663387 -0.035506676 -1.176421e-20)
(0.43957702 -0.038392642 -1.4190298e-20)
(0.4879851 -0.038634401 5.8727608e-21)
(-0.0047307763 0.0081236733 1.1093845e-20)
(-0.0070586005 0.015671176 -2.3352718e-20)
(-0.0020293659 0.018562033 8.6200547e-21)
(0.0090325202 0.018216225 3.3587965e-20)
(0.025256361 0.01565115 5.2124337e-20)
(0.046066338 0.011695603 2.0276509e-20)
(0.070984523 0.0069609525 -5.8639353e-21)
(0.099601949 0.0018829515 -1.2286283e-20)
(0.13156894 -0.003227198 -6.2057464e-21)
(0.16657567 -0.0081496573 3.4240832e-20)
(0.20433425 -0.01273332 -4.510438e-21)
(0.24456484 -0.016879186 -1.6643299e-20)
(0.2869847 -0.020528685 -1.9693571e-20)
(0.33129998 -0.02365641 -4.7443735e-20)
(0.37720458 -0.026265531 2.3238702e-20)
(0.4243877 -0.028387858 -1.4095983e-20)
(0.47249973 -0.030127616 2.5993396e-20)
(0.52103618 -0.031783184 2.1040821e-20)
(0.57021395 -0.033350672 -8.5570381e-20)
(0.62470917 -0.032058832 -1.080728e-22)
(-0.003771052 0.0063146395 2.1925055e-20)
(-0.0028657664 0.010735096 -2.6165529e-20)
(0.0071421048 0.011564137 -4.5013294e-20)
(0.024450233 0.0099249901 -2.725378e-20)
(0.047870851 0.0066523064 -2.0439868e-21)
(0.076628703 0.0024906177 1.3050094e-20)
(0.11007673 -0.0020153947 -2.8337695e-21)
(0.14765206 -0.0064879033 1.8118536e-20)
(0.18886096 -0.010663502 8.868561e-21)
(0.23325195 -0.01436242 -1.1380171e-20)
(0.28039149 -0.017468947 8.8779123e-21)
(0.32984603 -0.019916803 -2.3903266e-20)
(0.38116881 -0.021678694 8.0504764e-21)
(0.43389085 -0.022759871 1.675639e-20)
(0.48751936 -0.023194296 -2.6395122e-21)
(0.54154716 -0.023046885 1.6618972e-21)
(0.59543546 -0.022469438 -3.1957511e-22)
(0.64851784 -0.021870096 1.9590418e-20)
(0.7008224 -0.021445053 4.0433999e-21)
(0.75745151 -0.01849907 -5.7333953e-22)
(-0.0019110144 0.0040273483 2.3692112e-20)
(0.00386943 0.0046765206 5.7159958e-20)
(0.020315311 0.003187965 -4.9244223e-20)
(0.045178285 0.00029442692 -9.9454144e-21)
(0.076965152 -0.0034241509 2.0256344e-20)
(0.11469623 -0.0073535848 2.1433717e-21)
(0.15753883 -0.011054955 -2.981516e-20)
(0.20474831 -0.014244137 6.98481e-21)
(0.2556495 -0.016737926 7.1097874e-21)
(0.30960473 -0.018426954 -2.6254076e-20)
(0.36598648 -0.019260094 1.2927326e-21)
(0.42415959 -0.019231863 -3.7174111e-20)
(0.48347102 -0.018372198 -3.6341013e-20)
(0.54324566 -0.016738271 6.5683476e-20)
(0.60278813 -0.014407296 5.5627479e-21)
(0.66138885 -0.011475891 -1.5188793e-20)
(0.71830785 -0.0081020375 1.9363963e-20)
(0.77269902 -0.0045928572 -9.1888119e-22)
(0.82408836 -0.00096803899 2.0364575e-20)
(0.87621968 0.0043280786 -1.9554136e-20)
(-0.018836422 -0.0050997025 5.8352037e-20)
(-0.010224662 -0.0056349256 1.5783664e-20)
(-0.00022120354 -0.0060688784 -3.5139553e-20)
(0.010823215 -0.0063341077 1.679023e-20)
(0.022642452 -0.0065120448 0)
(0.035177867 -0.0066300875 0)
(0.04836964 -0.0066909706 -2.297494e-20)
(0.062138052 -0.0067025368 -1.6502865e-20)
(0.07641269 -0.0066741711 1.9122587e-20)
(0.091134047 -0.0066126623 1.8174028e-20)
(0.10624715 -0.0065232023 1.052425e-21)
(0.12170019 -0.0064103544 -1.0317633e-20)
(0.13744487 -0.0062780775 8.3268767e-21)
(0.15343597 -0.0061297187 1.8233711e-20)
(0.16963073 -0.0059681413 -5.2274153e-21)
(0.18598851 -0.0057958308 -1.0174932e-20)
(0.20247054 -0.0056149582 -4.3195859e-21)
(0.21903979 -0.0054274326 -4.4257372e-21)
(0.23566086 -0.0052349461 7.3667164e-22)
(0.25229985 -0.005039009 1.2286035e-21)
(0.26892445 -0.0048409764 2.5666302e-21)
(0.28550385 -0.0046420678 6.653944e-21)
(0.30200889 -0.0044433827 2.4894418e-22)
(0.31841201 -0.0042459104 -3.4514689e-21)
(0.33468738 -0.0040505384 1.5558762e-22)
(0.35081093 -0.0038580584 -5.7709763e-22)
(0.36676039 -0.0036691703 1.2434358e-21)
(0.38251536 -0.0034844865 1.0522433e-21)
(0.39805733 -0.0033045355 -1.2987927e-21)
(0.41336966 -0.0031297654 -1.2218737e-22)
(0.42843763 -0.0029605482 3.5749999e-23)
(0.44324839 -0.0027971839 -3.5187569e-22)
(0.45779093 -0.0026399056 -4.0565392e-22)
(0.47205608 -0.0024888845 5.5412998e-23)
(0.48603641 -0.002344236 -1.3809025e-22)
(0.49972624 -0.0022060255 -2.2343147e-22)
(0.51312154 -0.0020742751 2.55719e-22)
(0.52621997 -0.0019489706 2.9501942e-22)
(0.53902072 -0.0018300702 -8.271272e-24)
(0.55152492 -0.0017175084 -1.5517388e-22)
(0.56373452 -0.0016112243 3.0406543e-23)
(0.57565611 -0.0015111174 -4.0144671e-23)
(0.58728988 -0.0014172589 9.2203598e-23)
(0.59866483 -0.0013293125 2.1977008e-23)
(0.60973533 -0.0012485614 -1.139456e-22)
(0.62069339 -0.0011717965 -6.7612787e-24)
(0.63106139 -0.001111248 -7.2365285e-26)
(0.64234995 -0.0010339516 -3.5612284e-24)
(0.65042791 -0.0010508094 2.9453697e-23)
(0.66700886 -0.00087556398 3.6050773e-22)
(0.01044587 -0.01501761 -1.2746815e-20)
(0.018179699 -0.016641012 -6.330233e-20)
(0.027779217 -0.017915414 -3.0541938e-20)
(0.038385147 -0.018672072 3.847601e-20)
(0.04962099 -0.019183589 1.466261e-20)
(0.061506632 -0.019529433 -1.8204927e-20)
(0.074012824 -0.019709866 4.6722018e-21)
(0.087062673 -0.019746493 2.5447186e-20)
(0.10059314 -0.019667282 9.199288e-23)
(0.11455402 -0.019491701 -7.6591242e-21)
(0.12889718 -0.01923436 -1.3021015e-20)
(0.14357601 -0.018908312 -8.5245296e-21)
(0.15854664 -0.018524973 1.7772333e-20)
(0.17376755 -0.018094001 8.9295444e-21)
(0.18919898 -0.017623679 -1.6522436e-20)
(0.20480276 -0.017121232 -6.0390577e-21)
(0.22054213 -0.016592997 3.2145044e-21)
(0.23638174 -0.01604457 8.3716315e-21)
(0.25228752 -0.015480932 6.9832265e-21)
(0.26822672 -0.014906541 -6.9727156e-21)
(0.28416792 -0.014325414 -3.1685462e-21)
(0.30008109 -0.013741174 1.3605341e-21)
(0.31593765 -0.013157098 3.8682836e-22)
(0.33171053 -0.012576141 1.2113952e-21)
(0.34737428 -0.012000959 1.8368363e-22)
(0.36290511 -0.011433924 -3.266163e-22)
(0.37828096 -0.010877141 -7.2434863e-22)
(0.39348152 -0.010332454 9.7156585e-22)
(0.40848833 -0.0098014555 8.2482945e-22)
(0.42328472 -0.0092855023 -1.5147365e-22)
(0.43785588 -0.0087857228 5.5306076e-22)
(0.45218879 -0.0083030317 -2.3880913e-22)
(0.46627225 -0.0078381433 -3.7069896e-22)
(0.48009683 -0.0073915881 -6.0999093e-22)
(0.49365479 -0.0069637291 4.4171733e-22)
(0.50694012 -0.0065547802 -1.547737e-23)
(0.5199484 -0.006164826 1.6124753e-22)
(0.53267689 -0.0057938416 -4.417479e-22)
(0.54512434 -0.0054417202 3.7189563e-22)
(0.55729143 -0.0051082835 6.7175283e-23)
(0.56917964 -0.0047933667 -1.0285394e-22)
(0.58079506 -0.004496686 1.7613743e-22)
(0.59213742 -0.0042184702 2.3339729e-22)
(0.60323499 -0.0039577296 1.6926554e-22)
(0.61404232 -0.0037183097 1.6767292e-22)
(0.62474854 -0.0034906551 -2.6098145e-23)
(0.63488243 -0.0033112151 8.4044879e-23)
(0.64593164 -0.0030818734 7.6292767e-23)
(0.65383007 -0.0031323629 -1.9466642e-22)
(0.67009203 -0.0026124478 -3.8026289e-23)
(0.067614686 -0.024029146 9.4528293e-21)
(0.073589668 -0.026749049 3.2950976e-21)
(0.082265504 -0.028805568 -1.2162198e-20)
(0.091947817 -0.029968503 -1.2257908e-21)
(0.10198321 -0.030767863 1.4970587e-20)
(0.11254633 -0.03133089 -1.488712e-20)
(0.12367596 -0.031636069 -2.9842269e-20)
(0.13529681 -0.031713004 1.4493521e-20)
(0.14735695 -0.031607634 1.8181964e-20)
(0.15982342 -0.031350054 -1.1598515e-20)
(0.17266059 -0.030961818 1.0190551e-21)
(0.18583081 -0.030462752 8.686014e-21)
(0.19929784 -0.02987055 -1.5253539e-20)
(0.21302657 -0.029200237 2.9095151e-21)
(0.22698243 -0.028464758 7.5194348e-21)
(0.24113141 -0.027675503 3.1597964e-23)
(0.25544016 -0.026842557 2.6556385e-22)
(0.26987607 -0.025974895 -7.415085e-21)
(0.28440733 -0.025080563 3.8616828e-21)
(0.299003 -0.024166818 8.474904e-21)
(0.31363315 -0.023240232 -3.8351757e-21)
(0.32826894 -0.022306772 -2.2130363e-21)
(0.34288274 -0.021371855 1.0124437e-21)
(0.35744823 -0.020440386 -1.7155324e-21)
(0.37194052 -0.019516793 1.3532253e-21)
(0.38633623 -0.018605046 7.1845912e-22)
(0.40061353 -0.017708674 1.5268391e-21)
(0.41475227 -0.016830783 -1.9526619e-21)
(0.42873396 -0.015974069 2.2235683e-21)
(0.44254182 -0.015140833 5.5188538e-22)
(0.45616079 -0.014333005 4.0322597e-22)
(0.46957755 -0.013552159 3.2134468e-22)
(0.48278047 -0.01279954 8.7325029e-22)
(0.49575959 -0.012076085 -1.3708609e-21)
(0.50850662 -0.011382456 3.7065581e-22)
(0.52101486 -0.010719067 1.0941316e-22)
(0.5332792 -0.010086116 -4.5172363e-23)
(0.54529612 -0.0094836203 8.6732572e-23)
(0.55706358 -0.0089114592 -3.7184994e-22)
(0.56858137 -0.0083693927 1.8293527e-22)
(0.57985011 -0.0078572016 -3.4987148e-23)
(0.59087494 -0.0073744676 3.9004323e-22)
(0.60165479 -0.0069216201 -1.8544502e-22)
(0.61221653 -0.0064970705 4.7323566e-23)
(0.62251505 -0.0061072076 4.3603854e-23)
(0.63273405 -0.0057363438 -7.3599913e-23)
(0.64241448 -0.0054444197 -1.2082612e-22)
(0.65300002 -0.0050705142 3.8809507e-22)
(0.66055008 -0.0051542612 1.7270673e-22)
(0.67619377 -0.0043070305 -8.3039951e-22)
(0.15021528 -0.031460428 1.5010111e-21)
(0.15354689 -0.035257394 -1.1566611e-20)
(0.16061622 -0.038010919 6.6441941e-21)
(0.1688059 -0.039479096 -1.3324738e-20)
(0.17698224 -0.040520688 -1.9758304e-21)
(0.18552346 -0.041302279 9.159941e-21)
(0.1945842 -0.041757235 -9.7662171e-21)
(0.20408692 -0.041913709 1.5662789e-21)
(0.21398768 -0.041833329 1.2903798e-20)
(0.22427599 -0.041554334 3.4031989e-21)
(0.23493254 -0.041102043 -6.209695e-21)
(0.24593021 -0.040500448 -2.8638096e-21)
(0.25724159 -0.039771747 -5.8409051e-21)
(0.26883912 -0.038935054 -6.4553131e-21)
(0.28069424 -0.038006974 3.2356923e-21)
(0.29277764 -0.037002302 8.4621051e-22)
(0.30505975 -0.035934325 1.3679579e-21)
(0.317511 -0.034815022 -3.3850415e-21)
(0.33010197 -0.033655249 -4.2428857e-21)
(0.34280364 -0.032464896 2.3616507e-21)
(0.35558758 -0.031252997 3.2251355e-21)
(0.36842615 -0.030027816 -1.5636196e-21)
(0.38129262 -0.028796902 1.5867266e-21)
(0.39416135 -0.027567133 -3.9123998e-22)
(0.40700793 -0.026344745 -3.9196408e-21)
(0.41980927 -0.025135354 -3.0332814e-21)
(0.43254366 -0.023943978 -1.9026294e-22)
(0.44519093 -0.022775051 4.2858918e-22)
(0.45773241 -0.021632443 -2.2106034e-21)
(0.47015104 -0.02051948 -8.5497198e-22)
(0.48243133 -0.019438968 2.2837654e-22)
(0.49455941 -0.018393224 -1.2498687e-21)
(0.50652301 -0.017384101 6.2628947e-24)
(0.51831141 -0.01641303 -4.2420902e-22)
(0.52991549 -0.015481052 -4.7193617e-22)
(0.54132762 -0.014588864 -5.1995744e-22)
(0.5525417 -0.013736862 -8.4133197e-22)
(0.56355315 -0.012925185 -5.4496205e-23)
(0.5743588 -0.01215378 -3.9160457e-24)
(0.58495729 -0.011422424 -5.1972416e-22)
(0.59534805 -0.010730922 -9.1606915e-23)
(0.60553493 -0.010078796 -3.3239462e-22)
(0.61551576 -0.0094667379 -4.3760101e-22)
(0.62531553 -0.008892651 3.7841889e-22)
(0.63488962 -0.0083654195 1.4821037e-23)
(0.64441408 -0.0078635977 1.8237701e-22)
(0.65344736 -0.0074693579 -1.3246836e-22)
(0.66336999 -0.0069629705 -2.6691292e-22)
(0.67042208 -0.007079173 -4.4690731e-23)
(0.68517905 -0.0059327107 4.6229641e-22)
(0.25468564 -0.036552753 -2.0900313e-20)
(0.25447018 -0.041393504 4.7585945e-20)
(0.25907331 -0.044745651 1.034809e-20)
(0.2650841 -0.046442036 -1.5765313e-20)
(0.2707093 -0.047714308 -2.0227958e-21)
(0.27651991 -0.048747769 2.6232275e-21)
(0.28283546 -0.049413711 -1.6608173e-21)
(0.28957686 -0.049728092 -4.6861419e-21)
(0.29669653 -0.049761423 -4.0159161e-21)
(0.30420542 -0.049557044 -1.2207636e-20)
(0.31210213 -0.049141679 1.7897753e-20)
(0.32036932 -0.048540794 6.5219899e-21)
(0.32898694 -0.047778957 -1.6780523e-20)
(0.33793397 -0.046878011 1.0317574e-20)
(0.34718702 -0.045857293 8.3849912e-21)
(0.35672069 -0.044734306 -8.7923679e-22)
(0.36650839 -0.04352506 -3.1222226e-21)
(0.37652283 -0.042244241 -3.8197314e-21)
(0.38673635 -0.040905353 -1.3892577e-21)
(0.39712124 -0.039520846 -1.230419e-21)
(0.40765002 -0.038102215 -3.0257602e-21)
(0.41829572 -0.036660063 0)
(0.42903207 -0.035204149 -1.345191e-21)
(0.43983367 -0.033743417 3.9309506e-21)
(0.45067618 -0.032286023 5.405266e-21)
(0.46153643 -0.030839349 -9.411255e-22)
(0.47239252 -0.029410023 -2.9274434e-21)
(0.48322393 -0.02800393 3.0258382e-21)
(0.49401153 -0.02662624 2.5447446e-22)
(0.50473767 -0.025281422 3.4352449e-21)
(0.51538618 -0.023973285 -5.3459739e-22)
(0.52594242 -0.022705003 1.7173466e-21)
(0.53639319 -0.021479159 -7.9964368e-22)
(0.54672684 -0.020297787 2.9094142e-22)
(0.55693316 -0.019162424 -4.3403944e-22)
(0.56700339 -0.01807416 5.6231633e-22)
(0.57693023 -0.017033696 4.570988e-22)
(0.58670782 -0.016041398 3.8255599e-22)
(0.59633169 -0.015097386 -9.593623e-22)
(0.6057991 -0.014201552 6.8355463e-22)
(0.61510811 -0.013353821 -3.6957384e-22)
(0.62426104 -0.01255375 -1.10332e-21)
(0.63325449 -0.011802371 1.4078191e-21)
(0.64211116 -0.011097192 -6.2005875e-23)
(0.65078724 -0.010449516 -1.5816026e-22)
(0.65944921 -0.0098326424 -7.8244835e-24)
(0.66767773 -0.0093492595 -1.262167e-22)
(0.6767736 -0.0087262206 -4.6582675e-22)
(0.68320547 -0.0088736622 8.7882788e-22)
(0.69685097 -0.0074649225 -4.4315795e-23)
(0.37635128 -0.03836816 -1.7495098e-20)
(0.37170975 -0.044270222 1.2832042e-20)
(0.37286688 -0.048161604 2.9754641e-21)
(0.37591043 -0.050098843 -7.6353725e-21)
(0.37830524 -0.051669964 1.2055985e-20)
(0.38072291 -0.053042365 7.7914131e-21)
(0.38367598 -0.054030031 -1.2647695e-20)
(0.38710055 -0.054633094 -6.0679758e-21)
(0.39092921 -0.054917994 1.2697337e-20)
(0.3951824 -0.054927123 -1.5304975e-20)
(0.39987422 -0.054687504 -1.4063189e-20)
(0.40499504 -0.054224642 1.4129633e-20)
(0.41052859 -0.053563649 6.8193838e-21)
(0.41645715 -0.052727938 -4.2037652e-21)
(0.42276011 -0.051739005 -1.8545604e-21)
(0.429414 -0.050616738 -4.0581705e-21)
(0.43639344 -0.049379691 5.3047587e-21)
(0.44367192 -0.048045216 3.6682088e-21)
(0.45122221 -0.046629537 -3.2408294e-21)
(0.45901675 -0.045147804 3.1379487e-21)
(0.46702804 -0.043614148 2.7666802e-21)
(0.47522887 -0.042041716 -3.2111132e-21)
(0.48359265 -0.040442691 3.7056563e-22)
(0.49209352 -0.038828306 -3.2571643e-21)
(0.5007066 -0.037208854 7.2454157e-21)
(0.5094081 -0.035593696 6.1080604e-21)
(0.5181754 -0.03399127 8.0973212e-22)
(0.5269872 -0.032409112 -1.7683233e-21)
(0.53582351 -0.030853873 3.7021783e-21)
(0.54466577 -0.029331347 7.1885216e-21)
(0.55349682 -0.027846507 2.3049314e-21)
(0.56230093 -0.026403547 3.3164879e-21)
(0.57106382 -0.02500593 1.9956216e-21)
(0.57977262 -0.02365644 7.4557982e-22)
(0.58841589 -0.022357245 -2.6374557e-22)
(0.59698359 -0.021109961 2.7203145e-21)
(0.60546706 -0.019915719 6.199224e-22)
(0.61385907 -0.018775239 2.9487797e-22)
(0.62215371 -0.017688924 5.6232523e-23)
(0.63034681 -0.0166569 9.8966722e-22)
(0.63843493 -0.015679312 4.7020126e-23)
(0.64641884 -0.014755859 4.4247558e-22)
(0.65429381 -0.013887994 -1.2621823e-22)
(0.66208009 -0.013072951 -2.7734943e-22)
(0.66973496 -0.012324357 -1.5218698e-22)
(0.67741387 -0.011610843 -4.220811e-22)
(0.6847237 -0.011053547 1.6139447e-22)
(0.69287194 -0.010332341 -1.2723685e-22)
(0.6985948 -0.010509445 -5.012631e-22)
(0.71095725 -0.008881781 2.4587007e-22)
(0.50927427 -0.035974269 3.6471478e-21)
(0.49953036 -0.042960649 -1.8958293e-20)
(0.49627552 -0.047383446 -2.3083846e-21)
(0.49555588 -0.049736751 5.4869548e-21)
(0.49416948 -0.051818015 3.0528044e-21)
(0.49269568 -0.053705379 -4.9894929e-23)
(0.49181223 -0.055187616 6.189666e-21)
(0.49151445 -0.056265364 7.6251008e-21)
(0.4917116 -0.056990496 9.8580368e-21)
(0.49241065 -0.057395536 -1.1250041e-20)
(0.49363097 -0.057506262 -2.1579421e-20)
(0.4953677 -0.057348377 -3.9353453e-21)
(0.4976046 -0.056947089 1.5938142e-20)
(0.50032295 -0.056326966 1.2808957e-20)
(0.50350158 -0.055511688 -5.906694e-21)
(0.50711645 -0.0545238 1.3817036e-21)
(0.51114132 -0.053384737 -3.6600841e-21)
(0.51554867 -0.05211489 2.2443754e-21)
(0.52031021 -0.050733597 -2.912302e-22)
(0.52539726 -0.049259113 -1.8654095e-21)
(0.53078117 -0.047708608 7.8265888e-21)
(0.53643356 -0.046098157 -2.9308813e-22)
(0.54232663 -0.044442735 4.1818149e-22)
(0.54843332 -0.042756208 -6.5646613e-22)
(0.55472753 -0.041051327 -4.3029381e-21)
(0.56118423 -0.039339731 4.2085158e-21)
(0.56777957 -0.03763195 1.9031216e-21)
(0.574491 -0.035937426 -3.3081919e-21)