/*--------------------------------*- C++ -*----------------------------------*\
  =========                 |
  \\      /  F ield         | OpenFOAM: The Open Source CFD Toolbox
   \\    /   O peration     | Website:  https://openfoam.org
    \\  /    A nd           | Version:  6
     \\/     M anipulation  |
\*---------------------------------------------------------------------------*/
FoamFile
{
    version     2.0;
    format      ascii;
    class       volScalarField;
    location    "192";
    object      p;
}
// * * * * * * * * * * * * * * * * * * * * * * * * * * * * * * * * * * * * * //

dimensions      [0 2 -2 0 0 0 0];

internalField   nonuniform List<scalar> 
9200
(
-0.37794929
-0.3666028
-0.35650913
-0.34755984
-0.33882015
-0.33030391
-0.32208943
-0.31414419
-0.30640087
-0.29878754
-0.29123126
-0.28366297
-0.27602452
-0.26827591
-0.26040589
-0.25244975
-0.24448382
-0.23659593
-0.22981098
-0.22841101
-0.39580999
-0.38201233
-0.36997503
-0.35950595
-0.34939423
-0.33962132
-0.33025597
-0.32123492
-0.31245867
-0.30382886
-0.29525234
-0.28664687
-0.27794879
-0.26911889
-0.26014808
-0.25106134
-0.24188851
-0.2326293
-0.22396665
-0.21806651
-0.41408767
-0.397816
-0.38388099
-0.37196256
-0.36053413
-0.34952654
-0.33898725
-0.32881455
-0.31887476
-0.30904703
-0.29922706
-0.28933279
-0.27931113
-0.26914113
-0.25883383
-0.24842789
-0.23796208
-0.22744535
-0.21727695
-0.20857195
-0.43234827
-0.41362171
-0.39785436
-0.38454819
-0.37182329
-0.35954355
-0.3477273
-0.33623387
-0.32490332
-0.31360765
-0.30225222
-0.2907788
-0.2791687
-0.26744057
-0.2556437
-0.24384789
-0.2321197
-0.22049802
-0.20925029
-0.19911763
-0.44996187
-0.42888343
-0.41140048
-0.39678365
-0.38277199
-0.36915163
-0.35591162
-0.342883
-0.32990012
-0.31685491
-0.30369209
-0.29040548
-0.27703386
-0.26365106
-0.25035257
-0.23724131
-0.22440733
-0.21190918
-0.19993503
-0.18899233
-0.46610396
-0.44288219
-0.42385927
-0.4080212
-0.39271622
-0.37765275
-0.36280302
-0.34799539
-0.33309263
-0.31804299
-0.30286339
-0.28762441
-0.27243596
-0.25742919
-0.24273824
-0.22848514
-0.21476453
-0.20163231
-0.18921445
-0.17784774
-0.47976942
-0.45473164
-0.43440607
-0.41744687
-0.40082827
-0.38419686
-0.36753583
-0.35071159
-0.33365984
-0.3164245
-0.29912292
-0.28191625
-0.26498466
-0.24850379
-0.23262608
-0.21746942
-0.20310949
-0.18957741
-0.17694004
-0.16539856
-0.48979444
-0.46340166
-0.4420841
-0.42412733
-0.4061813
-0.38786463
-0.36921417
-0.3501866
-0.33083896
-0.3113458
-0.29194224
-0.27287957
-0.25439362
-0.23668121
-0.21988713
-0.20410118
-0.18936054
-0.17565708
-0.1629997
-0.15147564
-0.49483681
-0.46761697
-0.44560738
-0.42672682
-0.40739936
-0.38727776
-0.36651249
-0.34520776
-0.3235815
-0.30195447
-0.28067293
-0.26005573
-0.24036356
-0.22178315
-0.20442528
-0.18833311
-0.1734945
-0.15985784
-0.14737802
-0.1360448
-0.49354609
-0.4659607
-0.44342833
-0.42358002
-0.40276068
-0.38074081
-0.35784994
-0.33438561
-0.31074043
-0.28736449
-0.26467794
-0.24302175
-0.22263866
-0.20367234
-0.18617919
-0.17014705
-0.15551492
-0.14219335
-0.13009049
-0.11911121
-0.26506727
-0.26974155
-0.27224996
-0.27300111
-0.27278699
-0.27179448
-0.27010504
-0.2678062
-0.26497017
-0.26165169
-0.2578948
-0.253737
-0.24921141
-0.2443481
-0.23917534
-0.23372201
-0.22801899
-0.2220868
-0.21592449
-0.20961757
-0.26779991
-0.27205894
-0.27426061
-0.27479308
-0.27439589
-0.27324716
-0.27142644
-0.26901759
-0.26608923
-0.26269327
-0.25887132
-0.2546588
-0.25008693
-0.24518377
-0.23997498
-0.23448844
-0.22876249
-0.22281602
-0.21654173
-0.20991368
-0.27312939
-0.27657636
-0.27818004
-0.27828478
-0.27752866
-0.27607439
-0.27399798
-0.27137602
-0.26827021
-0.26472682
-0.26078266
-0.25646892
-0.25181302
-0.24683921
-0.2415683
-0.2360253
-0.23025996
-0.22429005
-0.21781644
-0.2105814
-0.28081581
-0.28310027
-0.28383841
-0.28331443
-0.28202541
-0.28011446
-0.27765365
-0.2747097
-0.27133466
-0.26756694
-0.2634365
-0.25896842
-0.25418462
-0.24910361
-0.24373941
-0.23811186
-0.23228267
-0.2262742
-0.21954096
-0.21145541
-0.2905569
-0.29138764
-0.29102422
-0.28968298
-0.28769208
-0.28517387
-0.28219722
-0.27881757
-0.27507554
-0.27100033
-0.26661363
-0.26193225
-0.25697057
-0.2517402
-0.24624704
-0.24050255
-0.23457643
-0.22850424
-0.2214813
-0.21236529
-0.30203887
-0.30118628
-0.29952005
-0.2971895
-0.29433707
-0.29106568
-0.28744326
-0.28351422
-0.2793072
-0.27483972
-0.27012269
-0.26516365
-0.25996818
-0.25453946
-0.24887424
-0.24297269
-0.23690451
-0.23072467
-0.22339736
-0.21314411
-0.31498277
-0.31227116
-0.30913519
-0.30566431
-0.30180655
-0.29764859
-0.29326127
-0.2886776
-0.28391153
-0.27896809
-0.2738467
-0.26854362
-0.26305385
-0.25737101
-0.25148276
-0.24537747
-0.23911765
-0.23278089
-0.22516342
-0.21378156
-0.32917261
-0.32446724
-0.31972778
-0.31499353
-0.31001388
-0.30486225
-0.29961268
-0.294286
-0.28888138
-0.28338945
-0.27779527
-0.27208084
-0.26622753
-0.26021688
-0.2540269
-0.24763702
-0.24110701
-0.23456042
-0.22674473
-0.21446585
-0.34445532
-0.33764212
-0.33118741
-0.32509049
-0.31889472
-0.31265892
-0.30646229
-0.30031291
-0.29419235
-0.28807361
-0.28192383
-0.27570657
-0.2693841
-0.26291766
-0.25626281
-0.24937167
-0.24226856
-0.23505967
-0.22648766
-0.21305017
-0.36073201
-0.35168807
-0.3434019
-0.33583771
-0.32831945
-0.32089112
-0.31363697
-0.30655004
-0.29959182
-0.29271601
-0.2858715
-0.27900512
-0.27206452
-0.26499829
-0.25775058
-0.25025697
-0.24246034
-0.23415406
-0.22368728
-0.20801856
-0.20246686
-0.19351856
-0.18456532
-0.17567112
-0.16678226
-0.15794042
-0.14919912
-0.14059341
-0.13215257
-0.12390521
-0.11587713
-0.10809051
-0.10056449
-0.093315432
-0.086356921
-0.079699841
-0.073352486
-0.067320658
-0.061607769
-0.056214949
-0.051141171
-0.046383388
-0.041936686
-0.037794448
-0.033948532
-0.030389457
-0.027106597
-0.024088374
-0.021322454
-0.018795942
-0.016495559
-0.014407828
-0.01251923
-0.010816364
-0.0092860885
-0.007915652
-0.0066928208
-0.0056059807
-0.0046443144
-0.0037977254
-0.0030576575
-0.0024151068
-0.0018678031
-0.0013991037
-0.0010445927
-0.0006947006
-0.00068800288
-8.0172325e-05
-0.0017061398
0.0024523976
-0.20347689
-0.19413134
-0.18506905
-0.17618919
-0.16728231
-0.15841029
-0.14964456
-0.14101658
-0.13255317
-0.12428349
-0.11623361
-0.10842561
-0.1008786
-0.093609021
-0.086630527
-0.079954061
-0.073587981
-0.06753815
-0.061808031
-0.056398796
-0.051309451
-0.046536969
-0.042076447
-0.037921273
-0.034063295
-0.030493021
-0.027199802
-0.024172034
-0.021397353
-0.018862825
-0.016555138
-0.01446077
-0.012566162
-0.01085787
-0.0093227101
-0.0079478871
-0.0067211254
-0.0056307691
-0.0046659606
-0.0038165638
-0.0030739827
-0.0024291769
-0.0018798192
-0.0014092749
-0.0010528488
-0.00070162191
-0.00069140563
-8.5988636e-05
-0.0016915817
0.0024238099
-0.20559558
-0.1953994
-0.18611968
-0.1773085
-0.16837802
-0.15944532
-0.15063197
-0.14195998
-0.13344954
-0.12513195
-0.11703453
-0.10917922
-0.10158527
-0.094269432
-0.087245654
-0.080525099
-0.07411633
-0.068025398
-0.06225592
-0.056809188
-0.051684299
-0.046878287
-0.042386286
-0.038201688
-0.034316333
-0.030720691
-0.027404066
-0.024354788
-0.021560416
-0.019007934
-0.016683933
-0.014574795
-0.01266686
-0.010946582
-0.0094006721
-0.0080162347
-0.0067808937
-0.005682896
-0.0047112895
-0.0038558462
-0.0031078797
-0.0024582646
-0.0019045556
-0.0014301121
-0.0010697111
-0.0007156345
-0.00069839629
-9.7479005e-05
-0.0016630053
0.0023672483
-0.20866419
-0.19709132
-0.18749063
-0.17887841
-0.16995854
-0.16094914
-0.15208166
-0.14336073
-0.13479125
-0.12640964
-0.1182469
-0.11032503
-0.10266357
-0.095280133
-0.088189353
-0.081402923
-0.074929865
-0.068776637
-0.062947191
-0.057443086
-0.052263622
-0.047405984
-0.042865398
-0.038635308
-0.03470756
-0.031072597
-0.02771966
-0.024636996
-0.021812056
-0.019231696
-0.016882371
-0.014750314
-0.012821709
-0.011082851
-0.0095202935
-0.00812098
-0.0068723789
-0.0057625842
-0.004780496
-0.0039157424
-0.0031594958
-0.0025024972
-0.0019421218
-0.0014617094
-0.00109526
-0.00073680142
-0.00070907381
-0.0001145955
-0.0016211582
0.0022839374
-0.21245607
-0.19893658
-0.18891268
-0.18070124
-0.17187735
-0.16279394
-0.15388341
-0.14512985
-0.13650678
-0.1280578
-0.11982243
-0.1118238
-0.10408187
-0.09661571
-0.089441349
-0.082571505
-0.076016048
-0.069782174
-0.063874456
-0.058294953
-0.053043358
-0.048117155
-0.043511783
-0.039220823
-0.035236188
-0.031548331
-0.028146455
-0.02501872
-0.022152457
-0.019534376
-0.017150758
-0.014987647
-0.013031028
-0.011266986
-0.0096818623
-0.0082623883
-0.0069958217
-0.0058700505
-0.0048737742
-0.0039964252
-0.0032289844
-0.0025620107
-0.0019926373
-0.0015041716
-0.0011295911
-0.00076519442
-0.00072358406
-0.0001372371
-0.0015671841
0.0021757622
-0.21662395
-0.2006547
-0.19011671
-0.18254383
-0.17396215
-0.16483634
-0.15590511
-0.14715336
-0.1385034
-0.13000043
-0.12169778
-0.11362306
-0.10579723
-0.098241219
-0.090973306
-0.084007996
-0.077356574
-0.07102744
-0.065026194
-0.059355742
-0.054016453
-0.049006343
-0.04432125
-0.039955038
-0.035899801
-0.032146085
-0.028683103
-0.025498965
-0.022580894
-0.019915447
-0.017488716
-0.015286529
-0.013294632
-0.011498861
-0.0098852975
-0.0084404112
-0.0071511987
-0.0060052902
-0.0049911338
-0.0040979158
-0.0033163753
-0.0026368416
-0.0020561439
-0.0015575447
-0.0011727586
-0.00080085621
-0.00074208185
-0.00016526244
-0.0015025308
0.002045177
-0.22077027
-0.20206411
-0.190891
-0.18412847
-0.17601241
-0.16694937
-0.15803171
-0.14931905
-0.14068526
-0.13215969
-0.12380808
-0.11566793
-0.10776352
-0.10011814
-0.092753011
-0.085685399
-0.078928797
-0.072493425
-0.066386428
-0.060612002
-0.055171567
-0.050063971
-0.045285698
-0.040831093
-0.036692583
-0.032860917
-0.029325407
-0.026074163
-0.023094333
-0.020372332
-0.017894058
-0.015645106
-0.013610957
-0.011777161
-0.010129499
-0.0086541352
-0.0073377575
-0.0061676903
-0.005132082
-0.0042198249
-0.0034213682
-0.0027267658
-0.002132482
-0.0016217252
-0.0012247119
-0.00084376559
-0.00076470389
-0.00019852058
-0.0014288476
0.001895071
-0.2246342
-0.20356044
-0.19145988
-0.18526774
-0.1778139
-0.16904565
-0.16021959
-0.15157072
-0.14299039
-0.13447994
-0.12610417
-0.1179132
-0.10993909
-0.10220864
-0.094746428
-0.087573231
-0.080705553
-0.074156052
-0.067933922
-0.062045087
-0.056492389
-0.051275822
-0.046392776
-0.041838285
-0.03760528
-0.033684849
-0.0300665
-0.026738418
-0.023687722
-0.020900712
-0.018363104
-0.016060253
-0.013977359
-0.012099661
-0.010412607
-0.008902017
-0.0075542307
-0.0063562235
-0.0052958002
-0.0043615141
-0.0035434799
-0.0028314336
-0.0022214145
-0.001696573
-0.0012853964
-0.00089392493
-0.0007916394
-0.00023691975
-0.0013479345
0.001728734
-0.22587353
-0.20538835
-0.19251889
-0.18589794
-0.17893152
-0.17074488
-0.16219528
-0.15367553
-0.1452022
-0.1367688
-0.12842294
-0.1202225
-0.11221061
-0.10441995
-0.09687902
-0.089612717
-0.082641404
-0.075981015
-0.069643525
-0.063637246
-0.057967046
-0.052634603
-0.047638677
-0.042975392
-0.038638521
-0.034619771
-0.030909074
-0.027494869
-0.024364384
-0.021503904
-0.018899032
-0.016534925
-0.014396523
-0.012468753
-0.01073672
-0.0091858756
-0.007802178
-0.0065722159
-0.0054834079
-0.0045239236
-0.0036834954
-0.0029514953
-0.0023234766
-0.0017825167
-0.0013551684
-0.00095155698
-0.00082327553
-0.00028016866
-0.0012619493
0.0015504352
-0.2160129
-0.20463445
-0.19363661
-0.18554924
-0.17849346
-0.17108107
-0.16313771
-0.15498385
-0.14679841
-0.13860746
-0.13043871
-0.12234965
-0.11439576
-0.10662
-0.099058171
-0.091741845
-0.084697684
-0.077947154
-0.071506953
-0.065389436
-0.059602902
-0.054151897
-0.049037542
-0.044257872
-0.039808169
-0.035681301
-0.03186805
-0.028357447
-0.025137082
-0.022193418
-0.019512075
-0.0170781
-0.014876225
-0.012891088
-0.011107448
-0.0095103713
-0.0080854032
-0.006818705
-0.005697263
-0.0047088119
-0.0038426504
-0.0030877313
-0.0024390642
-0.0018796081
-0.0014338582
-0.0010161372
-0.00085942227
-0.00032660946
-0.0011734522
0.0013656769
-0.19387494
-0.19858206
-0.19330891
-0.18440468
-0.17690216
-0.16989447
-0.16239436
-0.15453734
-0.14658926
-0.13861333
-0.13062912
-0.1226895
-0.11485378
-0.10716928
-0.099675001
-0.092405445
-0.085390243
-0.078653654
-0.072214893
-0.066088578
-0.060285034
-0.054810596
-0.049667951
-0.044856488
-0.040372649
-0.03621028
-0.032360983
-0.028814456
-0.025558827
-0.02258098
-0.019866849
-0.01740171
-0.015170444
-0.013157774
-0.01134849
-0.0097276388
-0.0082807138
-0.0069937917
-0.0058537469
-0.0048481863
-0.0039662304
-0.0031967175
-0.0025341942
-0.0019620563
-0.001502039
-0.0010747775
-0.00089054942
-0.00037301145
-0.0010830237
0.0011823625
-0.18332616
-0.18914711
-0.18567423
-0.17693562
-0.16973288
-0.16347692
-0.15677729
-0.14963415
-0.14234343
-0.13498018
-0.12755414
-0.12011388
-0.11272112
-0.1054269
-0.098273793
-0.091300109
-0.084539521
-0.078020297
-0.071765491
-0.065793357
-0.060117637
-0.054747842
-0.049689584
-0.044944933
-0.040512771
-0.036389148
-0.032567649
-0.029039741
-0.025795123
-0.022822057
-0.020107685
-0.017638328
-0.015399762
-0.01337747
-0.01155688
-0.0099235683
-0.0084634546
-0.0071629579
-0.0060092084
-0.0049900151
-0.00409457
-0.0033118928
-0.0026360877
-0.0020515676
-0.0015763537
-0.0011400539
-0.00092412671
-0.00042752562
-0.00098215765
0.00098472336
-0.17458805
-0.17780955
-0.17553258
-0.16851202
-0.16215969
-0.15659765
-0.15066478
-0.14425169
-0.137625
-0.13087985
-0.12402811
-0.11711216
-0.11019251
-0.10332204
-0.096545434
-0.089903367
-0.083432433
-0.077164113
-0.071124756
-0.065335899
-0.059814504
-0.054573185
-0.049620501
-0.044961288
-0.040597001
-0.036526064
-0.032744226
-0.029244918
-0.026019604
-0.023058117
-0.020348988
-0.017879755
-0.015637246
-0.013607852
-0.011777766
-0.010133206
-0.0086606225
-0.0073468611
-0.0061793794
-0.0051462501
-0.0042367775
-0.0034402123
-0.0027501897
-0.0021522699
-0.0016603894
-0.0012140389
-0.00096314574
-0.00048892109
-0.00087380477
0.00076824615
-0.16490998
-0.16552277
-0.16369141
-0.15874692
-0.15362452
-0.14880511
-0.14366336
-0.13806197
-0.13217833
-0.12611326
-0.11989444
-0.1135623
-0.10717397
-0.10078297
-0.094435835
-0.088175234
-0.08204025
-0.076065332
-0.070280021
-0.064709136
-0.059372941
-0.054287304
-0.049463935
-0.044910673
-0.040631804
-0.036628391
-0.032898621
-0.029438153
-0.026240468
-0.023297213
-0.020598532
-0.018133383
-0.015889837
-0.013855354
-0.012017045
-0.010361901
-0.0088770097
-0.0075497426
-0.0063679637
-0.0053200734
-0.0043955389
-0.0035838771
-0.0028782752
-0.0022654437
-0.0017552134
-0.0012969361
-0.0010088458
-0.00055467572
-0.00076552378
0.00054299072
-0.15434086
-0.15307376
-0.15126444
-0.14803483
-0.14420566
-0.14019109
-0.13584637
-0.13108894
-0.12600226
-0.12066938
-0.11513344
-0.10943746
-0.10363442
-0.097776718
-0.091911795
-0.086083596
-0.080332948
-0.074696696
-0.06920721
-0.063892382
-0.058775687
-0.053876267
-0.049209087
-0.044785162
-0.040611827
-0.036693031
-0.033029662
-0.029619881
-0.026459458
-0.023542115
-0.020859858
-0.018403303
-0.016161974
-0.014124602
-0.012279386
-0.010614244
-0.0091170411
-0.0077757852
-0.0065788455
-0.0055150288
-0.0045740308
-0.0037456714
-0.0030227442
-0.0023930529
-0.0018624998
-0.00138978
-0.0010627262
-0.00062416
-0.00066335263
0.00031706169
-0.14255437
-0.14049546
-0.13880068
-0.13684539
-0.13418707
-0.13100849
-0.12745089
-0.12351809
-0.11923221
-0.11464909
-0.10981962
-0.10478851
-0.099604164
-0.094316627
-0.088973171
-0.083617967
-0.07829248
-0.07303496
-0.067879847
-0.062857529
-0.057994276
-0.053312222
-0.048829436
-0.044560058
-0.040514507
-0.036699723
-0.033119447
-0.029774522
-0.026663216
-0.023781544
-0.021123599
-0.018681865
-0.016447535
-0.014410803
-0.012561141
-0.010887559
-0.0093788449
-0.0080237754
-0.0068113365
-0.0057308339
-0.0047722742
-0.0039258244
-0.0031839691
-0.0025355142
-0.0019827644
-0.0014928871
-0.0011257691
-0.0006969326
-0.00057328374
9.9111748e-05
-0.12986041
-0.12793066
-0.12658397
-0.12554077
-0.12384607
-0.12147715
-0.11867985
-0.11552571
-0.11201158
-0.10816701
-0.10404194
-0.099682756
-0.095132412
-0.090435828
-0.085638914
-0.080785313
-0.075916137
-0.071069899
-0.066282099
-0.061584809
-0.057006436
-0.052571592
-0.048301065
-0.044211865
-0.040317344
-0.036627371
-0.03314855
-0.029884481
-0.026836044
-0.024001693
-0.02137777
-0.018958812
-0.01673786
-0.014706751
-0.012856405
-0.011177087
-0.0096586583
-0.0082908014
-0.0070632408
-0.0059658834
-0.0049891412
-0.0041235816
-0.0033614889
-0.0026925599
-0.0021159624
-0.0016061848
-0.0011986496
-0.00077257794
-0.00050121742
-0.0001015491
-0.1169747
-0.11562514
-0.1147671
-0.11437971
-0.11344056
-0.11180687
-0.10972034
-0.10728336
-0.1044892
-0.10134969
-0.097906931
-0.094205239
-0.090284459
-0.086183898
-0.081944629
-0.077608564
-0.073215835
-0.068804288
-0.064409401
-0.060063959
-0.055797681
-0.051636968
-0.047604762
-0.043720498
-0.040000133
-0.03645624
-0.033098154
-0.029932175
-0.026961797
-0.024187969
-0.021609378
-0.019222733
-0.017023061
-0.015003992
-0.013158045
-0.011476892
-0.009951613
-0.0085729298
-0.0073314309
-0.0062177333
-0.005222758
-0.0043375336
-0.0035542727
-0.0028634469
-0.0022616391
-0.0017293453
-0.0012817431
-0.00085088597
-0.00045217382
-0.0002760709
-0.10444041
-0.10375737
-0.10341521
-0.10352184
-0.10317075
-0.10217435
-0.10072941
-0.098939643
-0.096801585
-0.094317544
-0.091519846
-0.088447466
-0.085135746
-0.081619649
-0.077935671
-0.074121349
-0.070214407
-0.066251322
-0.062266718
-0.058293139
-0.054360723
-0.050496867
-0.046725985
-0.043069361
-0.039545089
-0.036168078
-0.032950123
-0.029900037
-0.02702382
-0.024324872
-0.021804229
-0.019460821
-0.01729174
-0.015292514
-0.013457378
-0.011779534
-0.01025141
-0.0088648934
-0.0076115564
-0.0064828347
-0.0054702659
-0.0045654088
-0.0037605437
-0.003046815
-0.0024188156
-0.0018617098
-0.0013750105
-0.00093186058
-0.00042951633
-0.00041731101
-0.092543124
-0.092446152
-0.092572412
-0.093066688
-0.093176947
-0.092715395
-0.0918311
-0.090614011
-0.089062951
-0.087175468
-0.084974806
-0.082492917
-0.079759876
-0.076805552
-0.073661981
-0.070362573
-0.066941094
-0.063431348
-0.059866345
-0.056277622
-0.052694892
-0.049145744
-0.045655329
-0.042246135
-0.038937831
-0.035747194
-0.032688104
-0.029771592
-0.027005952
-0.024396889
-0.021947709
-0.019659532
-0.017531532
-0.015561179
-0.013744495
-0.012076306
-0.010550486
-0.0091601947
-0.0078980966
-0.0067565485
-0.0057278097
-0.0048040427
-0.0039777394
-0.0032406405
-0.0025859428
-0.0020022362
-0.0014779201
-0.0010156133
-0.00043437121
-0.00052096227
-0.081423206
-0.081782234
-0.082290919
-0.08308779
-0.083558889
-0.083534444
-0.083125452
-0.082404023
-0.081368561
-0.080013697
-0.07835503
-0.076417147
-0.074224359
-0.071801265
-0.069174793
-0.066373975
-0.063428722
-0.060369229
-0.057225812
-0.054028249
-0.050805122
-0.047583456
-0.044388416
-0.04124302
-0.038167913
-0.035181211
-0.032298424
-0.029532432
-0.026893524
-0.024389485
-0.02202573
-0.019805468
-0.017729899
-0.015798424
-0.014008877
-0.012357754
-0.010840444
-0.0094514581
-0.0081846426
-0.0070333652
-0.0059907042
-0.0050495014
-0.0042025994
-0.0034422934
-0.0027609386
-0.0021494942
-0.0015894188
-0.0011022075
-0.00046533681
-0.000586388
-0.071141118
-0.07182809
-0.072623142
-0.07364505
-0.074391316
-0.074714002
-0.074695982
-0.074392779
-0.073800705
-0.072911975
-0.071735859
-0.070290021
-0.068592903
-0.066663785
-0.064524407
-0.062198936
-0.059713085
-0.057093371
-0.054366769
-0.051560442
-0.048701144
-0.045814678
-0.042925542
-0.040056623
-0.037228924
-0.034461345
-0.031770528
-0.029170772
-0.026674003
-0.024289795
-0.022025444
-0.019886078
-0.017874811
-0.015992907
-0.014239983
-0.012614209
-0.011112523
-0.0097308375
-0.0084642444
-0.0073071959
-0.006253674
-0.0052972734
-0.0044313174
-0.003648649
-0.0029412695
-0.0023016882
-0.0017079463
-0.0011914927
-0.00051858623
-0.00061691337
-0.061708785
-0.062616508
-0.063609251
-0.064785187
-0.06573119
-0.066319808
-0.066613054
-0.066652713
-0.066432643
-0.065942914
-0.065187573
-0.064178152
-0.06292752
-0.061449788
-0.059761612
-0.05788224
-0.055832846
-0.053635954
-0.05131501
-0.048894044
-0.0463973
-0.043848732
-0.041271554
-0.038687902
-0.036118529
-0.033582548
-0.031097214
-0.02867778
-0.026337398
-0.024087088
-0.021935744
-0.01989019
-0.017955281
-0.016134029
-0.014427755
-0.012836268
-0.011358046
-0.0099904211
-0.0087297723
-0.0075716893
-0.006511127
-0.0055425006
-0.0046597323
-0.0038562357
-0.0031240652
-0.0024567068
-0.0018314927
-0.0012829716
-0.00058840421
-0.00061938426
-0.05311141
-0.054155739
-0.055271669
-0.056539674
-0.057619728
-0.058402556
-0.05893436
-0.059246035
-0.059329395
-0.059172819
-0.058776138
-0.05814569
-0.057289362
-0.056216481
-0.0549389
-0.05347111
-0.051829738
-0.050033094
-0.048100839
-0.046053628
-0.043912752
-0.041699753
-0.039436003
-0.037142315
-0.034838622
-0.032543684
-0.030274841
-0.028047806
-0.025876523
-0.023773066
-0.021747598
-0.019808365
-0.017961744
-0.016212324
-0.014563012
-0.013015174
-0.011568783
-0.010222581
-0.0089742438
-0.0078205313
-0.006757423
-0.0057802154
-0.0048835307
-0.0040614009
-0.0033062519
-0.0026121981
-0.0019577046
-0.0013757446
-0.00066808949
-0.00060297972
-0.045318209
-0.04643486
-0.047614737
-0.048923803
-0.050082658
-0.050998105
-0.051704285
-0.052223649
-0.052546665
-0.052660631
-0.052562152
-0.052253364
-0.051737941
-0.051021008
-0.050110083
-0.049015238
-0.047748753
-0.04632477
-0.044759041
-0.043068655
-0.041271702
-0.039386929
-0.037433389
-0.035430075
-0.033395575
-0.03134777
-0.02930356
-0.027278625
-0.025287236
-0.023342105
-0.021454292
-0.019633147
-0.017886305
-0.016219715
-0.014637706
-0.013143078
-0.011737218
-0.010420231
-0.0091910721
-0.0080476816
-0.0069870967
-0.0060055432
-0.0050984291
-0.0042604658
-0.0034846844
-0.002765661
-0.0020840304
-0.0014685454
-0.00075103615
-0.00057750025
-0.038287798
-0.039428972
-0.04062769
-0.04193806
-0.043131163
-0.044128052
-0.044953766
-0.045624348
-0.046129622
-0.046456463
-0.046599205
-0.046556771
-0.046329465
-0.045918924
-0.045328936
-0.044565658
-0.04363739
-0.042554337
-0.041328439
-0.039973173
-0.038503294
-0.036934534
-0.035283297
-0.033566351
-0.031800495
-0.030002257
-0.028187611
-0.026371719
-0.024568714
-0.022791511
-0.021051667
-0.019359285
-0.017722949
-0.016149712
-0.014645113
-0.013213222
-0.011856722
-0.010576995
-0.0093742325
-0.0082475359
-0.0071950122
-0.0062138505
-0.0053003108
-0.0044498484
-0.0036562585
-0.0029145411
-0.0022078836
-0.0015598557
-0.0008317261
-0.00055156169
-0.031972746
-0.033104149
-0.034288764
-0.035570992
-0.036763919
-0.037801193
-0.038701085
-0.039474884
-0.040112384
-0.040600626
-0.040932538
-0.04110476
-0.041115075
-0.04096239
-0.040647459
-0.040173129
-0.03954422
-0.038767386
-0.037851017
-0.036805116
-0.035641115
-0.034371647
-0.033010294
-0.031571317
-0.030069383
-0.028519276
-0.026935614
-0.0253326
-0.023723781
-0.02212184
-0.020538425
-0.018984008
-0.017467788
-0.015997624
-0.014580016
-0.013220101
-0.011921694
-0.010687338
-0.0095183774
-0.0084150313
-0.0073764624
-0.0064008374
-0.005485313
-0.0046261466
-0.0038179938
-0.0030563199
-0.0023267971
-0.0016480574
-0.00090636614
-0.0005312048
-0.026323
-0.027421169
-0.02856878
-0.029802264
-0.030969624
-0.032015553
-0.032953354
-0.033790865
-0.034518319
-0.035123398
-0.035598355
-0.035938366
-0.036139479
-0.036198617
-0.036114209
-0.035886452
-0.035517273
-0.035010264
-0.034370656
-0.033605261
-0.032722359
-0.031731543
-0.030643531
-0.02946995
-0.028223108
-0.026915749
-0.025560799
-0.024171117
-0.022759263
-0.02133728
-0.019916501
-0.018507387
-0.017119392
-0.015760862
-0.014438971
-0.013159683
-0.011927748
-0.010746713
-0.00961896
-0.0085457469
-0.0075272508
-0.0065626061
-0.0056498863
-0.0047861931
-0.0039670911
-0.0031885883
-0.0024385359
-0.0017315775
-0.00097301253
-0.00051930875
-0.021288181
-0.022338164
-0.023433954
-0.024605392
-0.025729509
-0.026760609
-0.027708363
-0.028578148
-0.029360959
-0.030045454
-0.030623785
-0.031090342
-0.03144012
-0.031668733
-0.03177296
-0.031751004
-0.031602512
-0.031328566
-0.030931716
-0.03041597
-0.029786752
-0.02905081
-0.028216089
-0.027291583
-0.026287151
-0.025213323
-0.024081087
-0.022901666
-0.021686296
-0.020446017
-0.01919148
-0.01793276
-0.016679211
-0.01543933
-0.014220664
-0.013029734
-0.01187199
-0.010751797
-0.009672422
-0.0086360527
-0.0076438071
-0.0066957491
-0.0057908614
-0.0049271104
-0.0041009819
-0.0033091114
-0.0025411591
-0.0018089891
-0.0010312149
-0.00051590035
-0.016819476
-0.017812856
-0.018848341
-0.019950273
-0.021019838
-0.022019644
-0.022956705
-0.023834652
-0.024645433
-0.02537889
-0.026027483
-0.026585341
-0.027046957
-0.027407212
-0.027661832
-0.027807632
-0.027842571
-0.02776579
-0.027577667
-0.027279865
-0.026875334
-0.026368272
-0.025764067
-0.025069196
-0.024291103
-0.023438053
-0.022518963
-0.02154322
-0.02052049
-0.019460519
-0.01837295
-0.017267143
-0.016152012
-0.015035879
-0.013926349
-0.012830218
-0.011753386
-0.010700812
-0.0096764733
-0.0086833426
-0.0077233755
-0.0067974975
-0.0059055639
-0.0050463991
-0.0042173986
-0.0034158957
-0.0026330398
-0.0018790625
-0.001081393
-0.00051911003
-0.01287069
-0.013803965
-0.014775525
-0.015805062
-0.016813893
-0.017771768
-0.018683736
-0.019552183
-0.02037009
-0.021128569
-0.02182066
-0.022440604
-0.022982815
-0.023441891
-0.023813
-0.024092094
-0.024275985
-0.024362398
-0.024350058
-0.024238759
-0.024029404
-0.023724013
-0.023325711
-0.022838679
-0.022268089
-0.021619998
-0.020901236
-0.020119262
-0.019282013
-0.018397737
-0.017474819
-0.016521624
-0.015546328
-0.014556773
-0.013560329
-0.012563778
-0.011573211
-0.010593945
-0.0096304631
-0.0086863581
-0.0077642896
-0.0068659484
-0.0059919971
-0.0051420846
-0.0043144847
-0.0035072773
-0.0027128741
-0.0019407863
-0.0011242317
-0.00052631835
-0.0093998134
-0.010273017
-0.011180605
-0.01213827
-0.01308415
-0.013994108
-0.01487171
-0.015718442
-0.016528307
-0.017293691
-0.018008361
-0.018666918
-0.019263982
-0.019794206
-0.020252583
-0.020634628
-0.020936458
-0.021154857
-0.021287368
-0.021332379
-0.021289184
-0.021158026
-0.020940115
-0.020637632
-0.020253694
-0.01979231
-0.019258304
-0.018657219
-0.017995206
-0.017278895
-0.01651525
-0.015711429
-0.014874632
-0.014011962
-0.013130284
-0.012236099
-0.011335431
-0.010433723
-0.0095357456
-0.0086455272
-0.0077662784
-0.0069003332
-0.0060490715
-0.0052129073
-0.0043909454
-0.0035820342
-0.0027797086
-0.0019933881
-0.0011603044
-0.00053506832
-0.0063688419
-0.0071846396
-0.0080309086
-0.0089198728
-0.0098037314
-0.010663565
-0.011501788
-0.012319213
-0.013110799
-0.01387014
-0.014591788
-0.015270837
-0.015902298
-0.016481102
-0.017002338
-0.017461408
-0.017854096
-0.018176634
-0.018425795
-0.018598978
-0.018694282
-0.01871057
-0.018647511
-0.01850561
-0.018286219
-0.017991519
-0.017624495
-0.017188876
-0.016689063
-0.016130044
-0.015517282
-0.0148566
-0.014154054
-0.013415807
-0.012647999
-0.011856622
-0.011047398
-0.010225667
-0.0093962808
-0.0085635096
-0.007730949
-0.0069014379
-0.0060769619
-0.005258619
-0.0044462819
-0.0036395608
-0.0028330313
-0.0020363978
-0.001189986
-0.0005435469
-0.003745567
-0.0045081647
-0.0052974385
-0.006122543
-0.006947434
-0.0077576244
-0.0085546191
-0.0093387002
-0.010105683
-0.010850263
-0.011567762
-0.012253824
-0.012903944
-0.013513458
-0.014077731
-0.014592275
-0.015052805
-0.015455307
-0.015796111
-0.016071982
-0.016280192
-0.016418589
-0.016485659
-0.016480571
-0.016403215
-0.016254218
-0.016034945
-0.015747482
-0.015394601
-0.014979705
-0.01450676
-0.013980207
-0.013404868
-0.012785837
-0.012128367
-0.011437759
-0.010719238
-0.0099778441
-0.0092183149
-0.0084449791
-0.0076616501
-0.0068715247
-0.0060770703
-0.0052799703
-0.0044807883
-0.0036798624
-0.0028727484
-0.0020696249
-0.0012134768
-0.00055062752
-0.0015043183
-0.0022195187
-0.0029577499
-0.0037255411
-0.0044966114
-0.0052601872
-0.0060170348
-0.0067670042
-0.0075066489
-0.0082316295
-0.008937981
-0.0096218928
-0.010279363
-0.010906193
-0.011498117
-0.012050892
-0.012560346
-0.013022431
-0.013433291
-0.013789334
-0.014087308
-0.014324365
-0.014498132
-0.014606765
-0.014649002
-0.014624202
-0.014532371
-0.014374173
-0.014150927
-0.013864585
-0.013517697
-0.013113361
-0.012655153
-0.012147047
-0.011593325
-0.010998478
-0.010367097
-0.0097037693
-0.0090129568
-0.0082988878
-0.0075654387
-0.0068160219
-0.0060534588
-0.0052799095
-0.0044965367
-0.0037043474
-0.0028998126
-0.002093648
-0.0012312835
-0.00055593748
0.00037901068
-0.00029461338
-0.00098801133
-0.0017053358
-0.0024283601
-0.0031494184
-0.0038686759
-0.0045856167
-0.0052974064
-0.0060005259
-0.0066916363
-0.0073674276
-0.0080243795
-0.0086587546
-0.0092666877
-0.0098442484
-0.010387479
-0.010892435
-0.011355244
-0.011772163
-0.012139647
-0.012454408
-0.012713485
-0.012914305
-0.01305474
-0.013133157
-0.013148469
-0.013100161
-0.012988313
-0.01281361
-0.012577333
-0.012281337
-0.011928013
-0.011520236
-0.011061296
-0.010554824
-0.0100047
-0.0094149526
-0.0087896524
-0.0081327991
-0.0074482019
-0.0067393593
-0.0060093242
-0.0052606209
-0.0044949109
-0.003713789
-0.00291456
-0.002108458
-0.0012432223
-0.00055898042
0.0019016034
0.0012617579
0.00060517496
-7.0547598e-05
-0.00075360059
-0.0014387626
-0.0021257028
-0.0028136082
-0.0035001345
-0.0041824271
-0.0048576648
-0.0055229646
-0.0061752277
-0.006811134
-0.0074271977
-0.0080198091
-0.0085852625
-0.0091197885
-0.0096195977
-0.010080931
-0.010500113
-0.010873611
-0.011198096
-0.011470499
-0.011688079
-0.011848477
-0.01194977
-0.011990522
-0.01196982
-0.011887304
-0.011743184
-0.011538239
-0.011273813
-0.010951786
-0.01057453
-0.010144851
-0.0096659197
-0.0091411842
-0.0085742742
-0.007968892
-0.0073286951
-0.0066571738
-0.0059575116
-0.0052324944
-0.0044841789
-0.0037146512
-0.0029219457
-0.0021177429
-0.0012518977
-0.00056107109
0.0031042221
0.0024921532
0.0018657031
0.001224096
0.00057411653
-8.0971885e-05
-0.00074045343
-0.0014032647
-0.0020674323
-0.0027306194
-0.0033904153
-0.0040442806
-0.0046894626
-0.0053229907
-0.0059417077
-0.0065422948
-0.007121292
-0.0076751225
-0.0082001264
-0.0086926008
-0.0091488449
-0.0095652099
-0.0099381539