/*--------------------------------*- C++ -*----------------------------------*\
  =========                 |
  \\      /  F ield         | OpenFOAM: The Open Source CFD Toolbox
   \\    /   O peration     | Website:  https://openfoam.org
    \\  /    A nd           | Version:  6
     \\/     M anipulation  |
\*---------------------------------------------------------------------------*/
FoamFile
{
    version     2.0;
    format      ascii;
    class       volScalarField;
    location    "157";
    object      p;
}
// * * * * * * * * * * * * * * * * * * * * * * * * * * * * * * * * * * * * * //

dimensions      [0 2 -2 0 0 0 0];

internalField   nonuniform List<scalar> 
9200
(
-0.37795254
-0.36660604
-0.35651236
-0.34756306
-0.33882336
-0.33030711
-0.32209262
-0.31414736
-0.30640403
-0.29879069
-0.29123439
-0.28366609
-0.27602763
-0.268279
-0.26040896
-0.2524528
-0.24448685
-0.23659894
-0.22981397
-0.22841396
-0.39581327
-0.38201559
-0.36997827
-0.35950918
-0.34939745
-0.33962453
-0.33025917
-0.3212381
-0.31246184
-0.30383202
-0.29525548
-0.28665
-0.27795189
-0.26912197
-0.26015115
-0.25106439
-0.24189153
-0.2326323
-0.22396962
-0.21806944
-0.41409097
-0.39781928
-0.38388425
-0.37196581
-0.36053736
-0.34952975
-0.33899045
-0.32881774
-0.31887794
-0.30905019
-0.2992302
-0.28933591
-0.27931423
-0.26914421
-0.25883689
-0.24843092
-0.23796508
-0.22744832
-0.21727989
-0.20857486
-0.43235158
-0.413625
-0.39785763
-0.38455144
-0.37182653
-0.35954678
-0.34773051
-0.33623706
-0.3249065
-0.31361081
-0.30225536
-0.29078192
-0.27917179
-0.26744363
-0.25564673
-0.2438509
-0.23212268
-0.22050097
-0.20925322
-0.19912052
-0.44996518
-0.42888673
-0.41140376
-0.39678691
-0.38277524
-0.36915486
-0.35591484
-0.3428862
-0.3299033
-0.31685807
-0.30369522
-0.29040858
-0.27703693
-0.2636541
-0.25035558
-0.23724429
-0.22441029
-0.2119121
-0.19993793
-0.1889952
-0.46610728
-0.44288549
-0.42386255
-0.40802447
-0.39271947
-0.37765599
-0.36280625
-0.34799859
-0.33309581
-0.31804614
-0.30286651
-0.2876275
-0.27243901
-0.25743221
-0.24274123
-0.2284881
-0.21476746
-0.20163521
-0.18921732
-0.17785059
-0.47977274
-0.45473495
-0.43440935
-0.41745014
-0.40083154
-0.3842001
-0.36753905
-0.35071479
-0.33366301
-0.31642763
-0.29912602
-0.28191932
-0.26498769
-0.24850678
-0.23262904
-0.21747235
-0.20311239
-0.18958029
-0.17694289
-0.16540139
-0.48979775
-0.46340495
-0.44208739
-0.42413061
-0.40618457
-0.38786788
-0.36921739
-0.35018979
-0.33084211
-0.31134891
-0.29194531
-0.27288261
-0.25439662
-0.23668418
-0.21989006
-0.20410409
-0.18936342
-0.17565994
-0.16300252
-0.15147844
-0.4948401
-0.46762026
-0.44561067
-0.4267301
-0.40740263
-0.387281
-0.3665157
-0.34521093
-0.32358462
-0.30195755
-0.28067596
-0.26005874
-0.24036653
-0.22178609
-0.20442819
-0.18833599
-0.17349736
-0.15986067
-0.14738083
-0.13604758
-0.49354936
-0.46596397
-0.4434316
-0.42358329
-0.40276395
-0.38074405
-0.35785313
-0.33438875
-0.31074352
-0.28736754
-0.26468094
-0.24302472
-0.2226416
-0.20367525
-0.18618207
-0.1701499
-0.15551776
-0.14219616
-0.13009328
-0.11911398
-0.26507035
-0.26974464
-0.27225304
-0.27300419
-0.27279007
-0.27179756
-0.27010811
-0.26780928
-0.26497324
-0.26165476
-0.25789786
-0.25374005
-0.24921445
-0.24435113
-0.23917836
-0.23372501
-0.22802197
-0.22208977
-0.21592744
-0.2096205
-0.26780299
-0.27206202
-0.27426369
-0.27479615
-0.27439896
-0.27325024
-0.27142952
-0.26902066
-0.2660923
-0.26269633
-0.25887438
-0.25466185
-0.25008997
-0.2451868
-0.239978
-0.23449144
-0.22876548
-0.22281899
-0.21654469
-0.20991662
-0.27313248
-0.27657945
-0.27818312
-0.27828786
-0.27753174
-0.27607747
-0.27400106
-0.2713791
-0.26827328
-0.26472989
-0.26078573
-0.25647197
-0.25181607
-0.24684224
-0.24157132
-0.23602831
-0.23026295
-0.22429303
-0.2178194
-0.21058435
-0.28081892
-0.28310337
-0.28384151
-0.28331753
-0.2820285
-0.28011755
-0.27765674
-0.27471279
-0.27133774
-0.26757002
-0.26343957
-0.25897149
-0.25418767
-0.24910665
-0.24374244
-0.23811488
-0.23228567
-0.22627719
-0.21954393
-0.21145836
-0.29056003
-0.29139076
-0.29102734
-0.28968609
-0.28769519
-0.28517697
-0.28220032
-0.27882067
-0.27507864
-0.27100342
-0.26661671
-0.26193532
-0.25697364
-0.25174326
-0.24625008
-0.24050558
-0.23457945
-0.22850724
-0.22148428
-0.21236825
-0.30204201
-0.30118942
-0.29952319
-0.29719263
-0.29434019
-0.2910688
-0.28744638
-0.28351733
-0.2793103
-0.27484282
-0.27012578
-0.26516673
-0.25997125
-0.25454253
-0.24887729
-0.24297573
-0.23690754
-0.23072768
-0.22340035
-0.21314708
-0.31498594
-0.31227432
-0.30913835
-0.30566746
-0.30180969
-0.29765173
-0.2932644
-0.28868073
-0.28391465
-0.2789712
-0.2738498
-0.26854672
-0.26305693
-0.25737408
-0.25148582
-0.24538052
-0.23912068
-0.23278391
-0.22516643
-0.21378454
-0.32917581
-0.32447042
-0.31973095
-0.3149967
-0.31001705
-0.3048654
-0.29961583
-0.29428913
-0.28888451
-0.28339257
-0.27779838
-0.27208394
-0.26623062
-0.26021996
-0.25402996
-0.24764008
-0.24111005
-0.23456345
-0.22674774
-0.21446884
-0.34445853
-0.33764533
-0.3311906
-0.32509367
-0.3188979
-0.31266209
-0.30646545
-0.30031606
-0.29419549
-0.28807674
-0.28192695
-0.27570968
-0.2693872
-0.26292075
-0.25626588
-0.24937473
-0.24227161
-0.2350627
-0.22649067
-0.21305316
-0.36073525
-0.35169129
-0.34340511
-0.33584091
-0.32832265
-0.32089431
-0.31364014
-0.30655321
-0.29959497
-0.29271915
-0.28587463
-0.27900823
-0.27206763
-0.26500138
-0.25775365
-0.25026003
-0.24246338
-0.23415708
-0.22369029
-0.20802154
-0.20246977
-0.19352145
-0.18456817
-0.17567394
-0.16678505
-0.15794318
-0.14920185
-0.1405961
-0.13215523
-0.12390784
-0.11587972
-0.10809307
-0.10056701
-0.093317922
-0.086359377
-0.079702265
-0.073354877
-0.067323017
-0.061610097
-0.056217247
-0.051143438
-0.046385626
-0.041938894
-0.037796627
-0.033950683
-0.03039158
-0.027108691
-0.024090438
-0.021324489
-0.018797946
-0.016497532
-0.014409768
-0.012521135
-0.010818232
-0.0092879164
-0.0079174368
-0.0066945587
-0.0056076673
-0.0046459445
-0.0037992931
-0.0030591561
-0.0024165279
-0.0018691392
-0.0014003396
-0.0010457313
-0.00069568885
-0.00068894325
-8.0739607e-05
-0.0017071748
0.0024531635
-0.20347981
-0.19413423
-0.18507191
-0.17619202
-0.16728511
-0.15841305
-0.14964729
-0.14101928
-0.13255584
-0.12428612
-0.11623621
-0.10842817
-0.10088113
-0.093611516
-0.086632988
-0.079956489
-0.073590377
-0.067540514
-0.061810364
-0.056401098
-0.051311722
-0.04653921
-0.04207866
-0.037923456
-0.034065451
-0.030495148
-0.0272019
-0.024174103
-0.021399392
-0.018864834
-0.016557115
-0.014462713
-0.012568071
-0.010859742
-0.0093245418
-0.0079496758
-0.0067228671
-0.0056324595
-0.0046675945
-0.0038181353
-0.0030754852
-0.0024306018
-0.0018811591
-0.0014105145
-0.0010539912
-0.00070261393
-0.00069234944
-8.6559618e-05
-0.0016926183
0.0024245714
-0.20559851
-0.1954023
-0.18612255
-0.17731134
-0.16838083
-0.15944809
-0.15063471
-0.14196269
-0.13345222
-0.12513459
-0.11703714
-0.10918179
-0.1015878
-0.094271936
-0.087248125
-0.080527536
-0.074118735
-0.068027771
-0.062258262
-0.056811499
-0.051686579
-0.046880538
-0.042388507
-0.03820388
-0.034318496
-0.030722826
-0.027406171
-0.024356864
-0.021562463
-0.01900995
-0.016685917
-0.014576747
-0.012668777
-0.010948461
-0.0094025114
-0.0080180308
-0.0067826429
-0.0056845939
-0.0047129309
-0.0038574252
-0.0031093896
-0.002459697
-0.0019059031
-0.0014313593
-0.0010708609
-0.00071663392
-0.00069934685
-9.8057203e-05
-0.0016640449
0.0023680014
-0.20866713
-0.19709423
-0.18749351
-0.17888126
-0.16996136
-0.16095193
-0.15208442
-0.14336345
-0.13479394
-0.12641229
-0.11824952
-0.11032762
-0.10266612
-0.095282651
-0.088191838
-0.081405373
-0.074932283
-0.068779023
-0.062949545
-0.057445409
-0.052265915
-0.047408247
-0.042867631
-0.038637512
-0.034709735
-0.031074743
-0.027721778
-0.024639084
-0.021814114
-0.019233724
-0.016884367
-0.014752276
-0.012823636
-0.011084742
-0.0095221437
-0.008122787
-0.0068741389
-0.0057642929
-0.0047821483
-0.0039173322
-0.0031610166
-0.0025039405
-0.0019434801
-0.0014629674
-0.0010964206
-0.00073781153
-0.00071003408
-0.0001151842
-0.001622202
0.0022846777
-0.21245903
-0.1989395
-0.18891557
-0.18070411
-0.17188019
-0.16279674
-0.15388618
-0.14513259
-0.13650948
-0.12806047
-0.11982506
-0.1118264
-0.10408444
-0.096618244
-0.089443849
-0.082573972
-0.076018483
-0.069784576
-0.063876826
-0.058297292
-0.053045666
-0.048119433
-0.043514032
-0.039223042
-0.035238378
-0.031550492
-0.028148587
-0.025020822
-0.02215453
-0.019536417
-0.017152767
-0.014989623
-0.013032969
-0.01126889
-0.009683726
-0.0082642088
-0.0069975953
-0.0058717728
-0.00487544
-0.0039980287
-0.0032305188
-0.0025634676
-0.0019940093
-0.0015054433
-0.0011307652
-0.00076621806
-0.00072455654
-0.00013783911
-0.0015682325
0.0021764857
-0.21662692
-0.20065763
-0.19011961
-0.18254671
-0.173965
-0.16483916
-0.1559079
-0.14715611
-0.13850612
-0.13000312
-0.12170043
-0.11362568
-0.10579981
-0.098243771
-0.090975824
-0.084010482
-0.077359027
-0.07102986
-0.065028582
-0.059358098
-0.054018779
-0.049008638
-0.044323515
-0.039957274
-0.035902008
-0.032148262
-0.028685251
-0.025501083
-0.022582983
-0.019917504
-0.017490741
-0.015288521
-0.013296589
-0.01150078
-0.0098871768
-0.0084422474
-0.0071529879
-0.0060070281
-0.0049928153
-0.004099535
-0.0033179257
-0.0026383145
-0.0020575319
-0.0015588324
-0.0011739485
-0.00080189564
-0.00074306846
-0.00016588014
-0.0015035837
0.0020458797
-0.22077325
-0.20206705
-0.19089391
-0.18413136
-0.17601527
-0.1669522
-0.15803451
-0.14932182
-0.140688
-0.13216239
-0.12381076
-0.11567057
-0.10776612
-0.10012071
-0.092755549
-0.085687903
-0.078931268
-0.072495864
-0.066388834
-0.060614377
-0.055173911
-0.050066284
-0.045287982
-0.040833347
-0.036694807
-0.032863112
-0.029327572
-0.026076299
-0.023096439
-0.020374406
-0.0178961
-0.015647115
-0.013612931
-0.011779097
-0.010131395
-0.0086559883
-0.0073395636
-0.0061694452
-0.0051337807
-0.0042214613
-0.0034229358
-0.0027282561
-0.0021338874
-0.0016230304
-0.0012259191
-0.00084482244
-0.00076570589
-0.00019915568
-0.0014299043
0.0018957491
-0.22463719
-0.20356339
-0.1914628
-0.18527064
-0.17781678
-0.16904849
-0.16022241
-0.15157351
-0.14299315
-0.13448266
-0.12610686
-0.11791586
-0.10994171
-0.10221123
-0.094748984
-0.087575754
-0.080708043
-0.074158509
-0.067936347
-0.06204748
-0.056494752
-0.051278154
-0.046395078
-0.041840557
-0.037607522
-0.033687062
-0.030068683
-0.026740571
-0.023689845
-0.020902804
-0.018365164
-0.016062279
-0.01397935
-0.012101614
-0.010414521
-0.0089038876
-0.0075560544
-0.0063579961
-0.0052975167
-0.0043631686
-0.0035450657
-0.0028329422
-0.0022228384
-0.0016978967
-0.0012866219
-0.00089500014
-0.00079265733
-0.00023757346
-0.0013489934
0.0017293836
-0.22587651
-0.2053913
-0.19252181
-0.18590084
-0.17893439
-0.17074773
-0.1621981
-0.15367832
-0.14520497
-0.13677153
-0.12842564
-0.12022517
-0.11221325
-0.10442255
-0.096881592
-0.089615256
-0.082643911
-0.07598349
-0.069645968
-0.063639657
-0.057969427
-0.052636953
-0.047640996
-0.042977681
-0.03864078
-0.034622001
-0.030911274
-0.027497039
-0.024366523
-0.021506013
-0.018901109
-0.016536968
-0.014398531
-0.012470723
-0.010738651
-0.0091877631
-0.0078040189
-0.0065740058
-0.0054851419
-0.0045255957
-0.003685099
-0.002953022
-0.0023249186
-0.0017838587
-0.0013564119
-0.0009526505
-0.00082430899
-0.0002808412
-0.0012630078
0.0015510531
-0.21601586
-0.20463739
-0.19363953
-0.18555213
-0.17849633
-0.17108392
-0.16314053
-0.15498664
-0.14680118
-0.1386102
-0.13044142
-0.12235233
-0.11439841
-0.10662261
-0.099060756
-0.091744398
-0.084700205
-0.077949643
-0.071509411
-0.065391863
-0.059605298
-0.054154262
-0.049039877
-0.044260177
-0.039810444
-0.035683546
-0.031870266
-0.028359632
-0.025139237
-0.022195542
-0.019514167
-0.017080159
-0.014878248
-0.012893073
-0.011109394
-0.0095122746
-0.00808726
-0.006820511
-0.0056990133
-0.0047105007
-0.0038442709
-0.003089275
-0.0024405235
-0.0018809676
-0.0014351191
-0.0010172483
-0.00086047032
-0.00032730023
-0.0011745081
0.00136626
-0.1938779
-0.19858498
-0.19331181
-0.18440757
-0.17690502
-0.16989731
-0.16239718
-0.15454013
-0.14659203
-0.13861608
-0.13063183
-0.12269219
-0.11485643
-0.1071719
-0.099677594
-0.092408007
-0.085392774
-0.078656153
-0.072217362
-0.066091016
-0.060287442
-0.054812974
-0.049670299
-0.044858806
-0.040374937
-0.036212539
-0.032363212
-0.028816655
-0.025560996
-0.022583117
-0.019868954
-0.017403783
-0.015172481
-0.013159775
-0.01135045
-0.0097295567
-0.0082825854
-0.0069956127
-0.0058555123
-0.0048498903
-0.0039678664
-0.0031982768
-0.0025356692
-0.0019634317
-0.0015033153
-0.0010759047
-0.00089160946
-0.00037371979
-0.0010840728
0.001182909
-0.18332908
-0.18915
-0.1856771
-0.17693847
-0.16973571
-0.16347974
-0.15678008
-0.14963692
-0.14234618
-0.13498291
-0.12755684
-0.12011655
-0.11272376
-0.10542951
-0.098276381
-0.091302667
-0.08454205
-0.078022796
-0.07176796
-0.065795797
-0.060120047
-0.054750223
-0.049691936
-0.044947256
-0.040515064
-0.036391413
-0.032569885
-0.029041947
-0.025797299
-0.022824202
-0.020109799
-0.017640409
-0.015401807
-0.013379479
-0.011558849
-0.0099254948
-0.0084653349
-0.0071647879
-0.0060109831
-0.0049917285
-0.0040962157
-0.0033134621
-0.002637573
-0.0020529537
-0.00157764
-0.0011411932
-0.00092519259
-0.0004282514
-0.00098318746
0.00098522684
-0.17459094
-0.1778124
-0.17553541
-0.16851484
-0.1621625
-0.15660044
-0.15066756
-0.14425444
-0.13762773
-0.13088255
-0.12403079
-0.11711482
-0.11019515
-0.10332465
-0.096548013
-0.089905919
-0.083434957
-0.077166609
-0.071127223
-0.065338338
-0.059816914
-0.054575567
-0.049622855
-0.044963614
-0.040599299
-0.036528333
-0.032746466
-0.02924713
-0.026021785
-0.023060268
-0.020351108
-0.017881841
-0.015639298
-0.013609867
-0.011779742
-0.01013514
-0.0086625105
-0.007348699
-0.0061811622
-0.0051479719
-0.0042384317
-0.0034417906
-0.002751684
-0.0021536657
-0.0016616844
-0.0012151892
-0.00096421523
-0.00048966472
-0.00087480707
0.00076869917
-0.16491283
-0.16552558
-0.1636942
-0.1587497
-0.1536273
-0.14880787
-0.1436661
-0.1380647
-0.13218104
-0.12611595
-0.11989711
-0.11356494
-0.10717658
-0.10078557
-0.094438403
-0.088177775
-0.082042765
-0.076067821
-0.070282483
-0.064711571
-0.059375349
-0.054289685
-0.049466288
-0.044912999
-0.040634102
-0.036630662
-0.032900864
-0.029440367
-0.026242653
-0.023299368
-0.020600656
-0.018135475
-0.015891894
-0.013857375
-0.012019027
-0.01036384
-0.0088789034
-0.0075515864
-0.0063697526
-0.0053218017
-0.0043971999
-0.0035854624
-0.0028797767
-0.0022668471
-0.001756515
-0.0012980955
-0.0010099162
-0.00055543584
-0.00076649206
0.00054338738
-0.15434366
-0.15307653
-0.1512672
-0.14803758
-0.1442084
-0.14019382
-0.13584908
-0.13109164
-0.12600494
-0.12067204
-0.11513608
-0.10944008
-0.10363702
-0.097779293
-0.091914347
-0.086086124
-0.080335452
-0.074699174
-0.069209663
-0.063894809
-0.058778088
-0.053878642
-0.049211436
-0.044787485
-0.040614123
-0.0366953
-0.033031904
-0.029622095
-0.026461643
-0.02354427
-0.020861983
-0.018405395
-0.016164033
-0.014126624
-0.01228137
-0.010616186
-0.0091189374
-0.0077776319
-0.0065806376
-0.0055167605
-0.0045756954
-0.0037472606
-0.0030242497
-0.0023944609
-0.0018638049
-0.0013909453
-0.0010637939
-0.00062493355
-0.00066428026
0.00031739791
-0.14255712
-0.14049819
-0.1388034
-0.1368481
-0.13418977
-0.13101118
-0.12745357
-0.12352076
-0.11923486
-0.11465172
-0.10982224
-0.1047911
-0.099606739
-0.094319182
-0.088975704
-0.083620478
-0.078294968
-0.073037425
-0.067882288
-0.062859946
-0.057996668
-0.053314589
-0.048831778
-0.044562375
-0.040516798
-0.036701987
-0.033121684
-0.029776732
-0.026665397
-0.023783697
-0.021125721
-0.018683955
-0.016449591
-0.014412823
-0.012563123
-0.010889499
-0.0093807401
-0.0080256211
-0.0068131279
-0.0057325652
-0.0047739385
-0.0039274137
-0.0031854746
-0.0025369228
-0.0019840689
-0.0014940539
-0.0011268298
-0.00069771549
-0.00057416477
9.9384446e-05
-0.12986311
-0.12793336
-0.12658665
-0.12554344
-0.12384874
-0.12147981
-0.1186825
-0.11552834
-0.1120142
-0.10816961
-0.10404453
-0.099685326
-0.095134964
-0.09043836
-0.085641426
-0.080787805
-0.075918607
-0.071072347
-0.066284525
-0.061587212
-0.057008815
-0.052573947
-0.048303396
-0.044214171
-0.040319625
-0.036629626
-0.033150779
-0.029886684
-0.026838218
-0.024003838
-0.021379885
-0.018960896
-0.01673991
-0.014708765
-0.012858381
-0.011179021
-0.0096605481
-0.0082926419
-0.0070650271
-0.0059676097
-0.0049908007
-0.0041251662
-0.0033629897
-0.002693964
-0.0021172613
-0.0016073481
-0.0011996983
-0.00077336458
-0.00050204628
-0.00010134102
-0.11697737
-0.11562779
-0.11476975
-0.11438235
-0.1134432
-0.11180949
-0.10972295
-0.10728596
-0.10449179
-0.10135227
-0.097909491
-0.094207782
-0.090286986
-0.086186406
-0.081947118
-0.077611034
-0.073218285
-0.068806717
-0.064411809
-0.060066344
-0.055800044
-0.051639308
-0.047607079
-0.043722791
-0.040002401
-0.036458483
-0.033100372
-0.029934366
-0.02696396
-0.024190104
-0.021611483
-0.019224806
-0.0170251
-0.015005996
-0.013160011
-0.011478817
-0.0099534927
-0.0085747603
-0.0073332072
-0.0062194496
-0.0052244075
-0.0043391083
-0.0035557634
-0.0028648412
-0.002262927
-0.0017304991
-0.0012827743
-0.00085167005
-0.00045294624
-0.00027592728
-0.10444303
-0.10375999
-0.10341782
-0.10352444
-0.10317335
-0.10217694
-0.10073199
-0.098942212
-0.096804142
-0.094320088
-0.091522377
-0.088449982
-0.085138246
-0.081622133
-0.077938137
-0.074123796
-0.070216835
-0.06625373
-0.062269105
-0.058295506
-0.054363068
-0.050499189
-0.046728284
-0.043071637
-0.039547341
-0.036170305
-0.032952325
-0.029902212
-0.027025968
-0.024326992
-0.021806319
-0.019462879
-0.017293765
-0.015294504
-0.013459329
-0.011781444
-0.010253275
-0.0088667089
-0.0076133176
-0.0064845358
-0.0054719001
-0.0045669679
-0.0037620186
-0.0030481933
-0.0024200862
-0.0018628476
-0.0013760183
-0.00093263493
-0.00043022893
-0.00041722974
-0.092545717
-0.092448736
-0.092574988
-0.093069259
-0.093179512
-0.092717952
-0.091833648
-0.090616549
-0.089065478
-0.087177984
-0.084977308
-0.082495405
-0.079762349
-0.07680801
-0.073664421
-0.070364996
-0.066943499
-0.063433733
-0.059868711
-0.056279967
-0.052697217
-0.049148046
-0.045657609
-0.042248392
-0.038940064
-0.035749404
-0.032690288
-0.02977375
-0.027008082
-0.024398991
-0.021949781
-0.019661573
-0.017533539
-0.01556315
-0.013746428
-0.012078196
-0.010552331
-0.0091619905
-0.0078998378
-0.0067582291
-0.0057294231
-0.0048055807
-0.0039791926
-0.0032419968
-0.0025871902
-0.0020033515
-0.0014788989
-0.0010163709
-0.00043502235
-0.00052094013
-0.081425766
-0.081784785
-0.082293464
-0.083090329
-0.083561422
-0.083536969
-0.083127969
-0.08240653
-0.081371058
-0.080016183
-0.078357503
-0.076419607
-0.074226805
-0.071803696
-0.069177208
-0.066376374
-0.063431103
-0.060371591
-0.057228155
-0.054030572
-0.050807424
-0.047585737
-0.044390675
-0.041245257
-0.038170126
-0.0351834
-0.032300588
-0.02953457
-0.026895634
-0.024391566
-0.022027781
-0.019807488
-0.017731884
-0.015800374
-0.014010788
-0.012359622
-0.010842266
-0.0094532298
-0.0081863592
-0.0070350207
-0.0059922918
-0.005051013
-0.0042040255
-0.0034436221
-0.002762157
-0.0021505809
-0.0015903635
-0.0011029417
-0.00046592623
-0.00058642023
-0.071143646
-0.071830609
-0.072625655
-0.073647558
-0.074393818
-0.074716496
-0.074698468
-0.074395256
-0.073803172
-0.072914431
-0.071738303
-0.070292453
-0.068595321
-0.066666189
-0.064526796
-0.062201309
-0.059715441
-0.057095709
-0.054369089
-0.051562742
-0.048703424
-0.045816937
-0.042927779
-0.040058838
-0.037231116
-0.034463512
-0.03177267
-0.029172888
-0.026676091
-0.024291854
-0.022027472
-0.019888074
-0.017876772
-0.015994831
-0.014241867
-0.012616051
-0.011114318
-0.0097325817
-0.0084659325
-0.0073088222
-0.0062552316
-0.005298754
-0.0044327117
-0.003649945
-0.002942454
-0.002302741
-0.0017088526
-0.0011921979
-0.00051911565
-0.00061699433
-0.061711282
-0.062618997
-0.063611733
-0.064787664
-0.065733661
-0.066322272
-0.06661551
-0.06665516
-0.066435081
-0.065945342
-0.065189989
-0.064180557
-0.062929911
-0.061452166
-0.059763975
-0.057884588
-0.055835177
-0.053638267
-0.051317306
-0.04889632
-0.046399556
-0.043850967
-0.041273768
-0.038690093
-0.036120698
-0.033584692
-0.031099333
-0.028679871
-0.026339462
-0.024089122
-0.021937747
-0.01989216
-0.017957216
-0.016135926
-0.014429612
-0.012838081
-0.011359811
-0.0099921347
-0.0087314289
-0.0075732831
-0.0065126509
-0.0055439467
-0.0046610908
-0.003857495
-0.0031252116
-0.0024577215
-0.0018323574
-0.0012836437
-0.00058887688
-0.00061950716
-0.053113878
-0.054158199
-0.055274122
-0.056542122
-0.05762217
-0.058404991
-0.058936787
-0.059248453
-0.059331804
-0.059175218
-0.058778526
-0.058148066
-0.057291726
-0.056218832
-0.054941237
-0.053473431
-0.051832043
-0.050035383
-0.048103109
-0.04605588
-0.043914984
-0.041701965
-0.039438193
-0.037144483
-0.034840766
-0.032545804
-0.030276934
-0.028049872
-0.025878561
-0.023775075
-0.021749574
-0.019810307
-0.017963651
-0.016214192
-0.014564839
-0.013016956
-0.011570517
-0.010224262
-0.0089758665
-0.0078220899
-0.0067589108
-0.005781624
-0.0048848506
-0.0040626206
-0.0033073576
-0.0026131719
-0.0019585263
-0.0013763812
-0.00066851035
-0.00060313719
-0.045320648
-0.046437292
-0.047617161
-0.048926222
-0.050085072
-0.051000512
-0.051706683
-0.052226039
-0.052549046
-0.052663002
-0.052564512
-0.052255713
-0.051740278
-0.051023332
-0.050112392
-0.049017532
-0.047751032
-0.046327032
-0.044761286
-0.043070881
-0.041273909
-0.039389115
-0.037435554
-0.035432217
-0.033397694
-0.031349864
-0.029305628
-0.027280666
-0.025289248
-0.023344086
-0.021456241
-0.019635061
-0.017888183
-0.016221554
-0.014639502
-0.013144828
-0.011738919
-0.010421877
-0.0091926593
-0.0080492035
-0.0069885464
-0.0060069126
-0.0050997086
-0.004261644
-0.0034857476
-0.0027665923
-0.0020848086
-0.0014691456
-0.0007514111
-0.00057768437
-0.038290209
-0.039431377
-0.040630087
-0.041940452
-0.043133548
-0.044130431
-0.044956137
-0.04562671
-0.046131975
-0.046458807
-0.046601538
-0.046559092
-0.046331775
-0.04592122
-0.045331219
-0.044567927
-0.043639643
-0.042556573
-0.041330658
-0.039975374
-0.038505475
-0.036936695
-0.035285437
-0.033568468
-0.031802588
-0.030004325
-0.028189653
-0.026373733
-0.024570698
-0.022793464
-0.021053588
-0.01936117
-0.017724797
-0.01615152
-0.014646877
-0.013214939
-0.011858388
-0.010578606
-0.0093757829
-0.0082490198
-0.0071964227
-0.0062151795
-0.0053015487
-0.0044509841
-0.0036572786
-0.0029154297
-0.0022086193
-0.00156042
-0.00083206173
-0.00055176463
-0.031975131
-0.033106527
-0.034291135
-0.035573357
-0.036766278
-0.037803545
-0.038703429
-0.039477219
-0.040114711
-0.040602943
-0.040934844
-0.041107055
-0.041117358
-0.04096466
-0.040649716
-0.040175371
-0.039546447
-0.038769597
-0.03785321
-0.036807291
-0.03564327
-0.034373782
-0.033012407
-0.031573408
-0.03007145
-0.028521317
-0.026937629
-0.025334587
-0.023725738
-0.022123765
-0.020540316
-0.018985863
-0.017469604
-0.0159994
-0.014581747
-0.013221784
-0.011923325
-0.010688913
-0.0095198904
-0.0084164766
-0.0073778331
-0.0064021255
-0.0054865091
-0.0046272398
-0.0038189711
-0.0030571663
-0.0023274919
-0.0016485874
-0.00090666888
-0.00053141921
-0.026325359
-0.027423521
-0.028571126
-0.029804603
-0.030971957
-0.032017879
-0.032955672
-0.033793174
-0.03452062
-0.035125689
-0.035600635
-0.035940634
-0.036141736
-0.036200861
-0.036116439
-0.035888668
-0.035519473
-0.035012448
-0.034372823
-0.03360741
-0.032724489
-0.031733652
-0.030645619
-0.029472015
-0.028225148
-0.026917763
-0.025562786
-0.024173076
-0.022761191
-0.021339176
-0.019918363
-0.018509212
-0.017121177
-0.015762605
-0.014440669
-0.013161332
-0.011929344
-0.010748251
-0.0096204354
-0.0085471534
-0.0075285816
-0.0065638533
-0.0056510408
-0.0047872444
-0.0039680265
-0.0031893941
-0.0024391923
-0.0017320755
-0.00097328826
-0.0005195284
-0.021290516
-0.022340492
-0.023436275
-0.024607706
-0.025731817
-0.026762909
-0.027710656
-0.028580432
-0.029363234
-0.030047719
-0.03062604
-0.031092586
-0.031442352
-0.031670951
-0.031775165
-0.031753195
-0.031604687
-0.031330725
-0.030933858
-0.030418093
-0.029788856
-0.029052893
-0.02821815
-0.027293621
-0.026289165
-0.025215311
-0.024083047
-0.022903597
-0.021688196
-0.020447884
-0.019193311
-0.017934554
-0.016680965
-0.015441041
-0.014222329
-0.013031348
-0.011873551
-0.010753299
-0.0096738598
-0.0086374206
-0.0076450983
-0.0066969559
-0.0057919751
-0.0049281207
-0.004101877
-0.0033098784
-0.0025417798
-0.0018094576
-0.0010314685
-0.00051612047
-0.016821787
-0.01781516
-0.018850638
-0.019952564
-0.021022122
-0.02202192
-0.022958973
-0.023836911
-0.024647684
-0.025381131
-0.026029713
-0.026587559
-0.027049164
-0.027409406
-0.027664012
-0.027809797
-0.027844721
-0.027767923
-0.027579783
-0.027281963
-0.026877412
-0.02637033
-0.025766102
-0.025071207
-0.02429309
-0.023440014
-0.022520896
-0.021545123
-0.020522361
-0.019462357
-0.018374752
-0.017268907
-0.016153735
-0.015037557
-0.013927981
-0.012831798
-0.011754911
-0.010702278
-0.0096778739
-0.0086846725
-0.0077246279
-0.006798665
-0.0059066379
-0.00504737
-0.0042182551
-0.0034166262
-0.0026336276
-0.0018795042
-0.0010816284
-0.00051932746
-0.012872979
-0.013806247
-0.0147778
-0.015807329
-0.016816154
-0.017774022
-0.01868598
-0.019554419
-0.020372317
-0.021130786
-0.021822866
-0.022442799
-0.022984998
-0.023444061
-0.023815156
-0.024094236
-0.02427811
-0.024364507
-0.02435215
-0.024240832
-0.024031457
-0.023726045
-0.023327721
-0.022840666
-0.02227005
-0.021621933
-0.020903142
-0.020121138
-0.019283857
-0.018399546
-0.017476592
-0.016523357
-0.015548019
-0.01455842
-0.013561928
-0.012565325
-0.011574701
-0.010595375
-0.0096318274
-0.0086876508
-0.0077655044
-0.0068670778
-0.0059930331
-0.005143018
-0.0043153051
-0.0035079739
-0.002713432
-0.0019412039
-0.0011244519
-0.00052653136
-0.00940208
-0.010275277
-0.011182858
-0.012140516
-0.013086388
-0.013996339
-0.014873932
-0.015720656
-0.016530511
-0.017295885
-0.018010544
-0.018669089
-0.019266141
-0.019796353
-0.020254716
-0.020636746
-0.02093856
-0.021156942
-0.021289436
-0.021334428
-0.021291213
-0.021160033
-0.0209421
-0.020639593
-0.020255629
-0.019794218
-0.019260183
-0.018659068
-0.017997022
-0.017280676
-0.016516994
-0.015713133
-0.014876294
-0.014013578
-0.01313185
-0.012237613
-0.011336889
-0.010435118
-0.0095370749
-0.0086467844
-0.0077674571
-0.0069014265
-0.0060500715
-0.0052138055
-0.0043917321
-0.0035826997
-0.0027802394
-0.0019937842
-0.0011605117
-0.00053527628
-0.006371088
-0.0071868787
-0.0080331407
-0.008922098
-0.0098059492
-0.010665775
-0.011503989
-0.012321405
-0.013112982
-0.013872313
-0.01459395
-0.015272987
-0.015904436
-0.016483226
-0.017004449
-0.017463504
-0.017856176
-0.018178697
-0.01842784
-0.018601004
-0.018696288
-0.018712554
-0.018649472
-0.018507547
-0.01828813
-0.017993403
-0.017626349
-0.017190699
-0.016690853
-0.016131798
-0.015518999
-0.014858276
-0.014155686
-0.013417393
-0.012649535
-0.011858105
-0.011048823
-0.01022703
-0.0093975768
-0.008564733
-0.0077320936
-0.0069024972
-0.0060779283
-0.0052594845
-0.0044470377
-0.0036401981
-0.0028335379
-0.0020367749
-0.0011901824
-0.00054374989
-0.0037477937
-0.0045103845
-0.0052996513
-0.0061247487
-0.0069496321
-0.0077598145
-0.0085568006
-0.0093408725
-0.010107846
-0.010852415
-0.011569903
-0.012255954
-0.012906061
-0.013515561
-0.014079821
-0.01459435
-0.015054864
-0.015457348
-0.015798134
-0.016073986
-0.016282176
-0.016420551
-0.016487598
-0.016482485
-0.016405103
-0.016256078
-0.016036775
-0.015749281
-0.015396366
-0.014981434
-0.01450845
-0.013981857
-0.013406474
-0.012787395
-0.012129875
-0.011439212
-0.010720633
-0.0099791767
-0.0092195798
-0.0084461711
-0.0076627632
-0.0068725526
-0.0060780059
-0.0052808062
-0.0044815162
-0.0036804745
-0.0028732336
-0.0020699854
-0.0012136638
-0.00055082598
-0.0015065273
-0.0022217209
-0.0029599451
-0.003727729
-0.0044987916
-0.0052623592
-0.006019198
-0.0067691582
-0.007508793
-0.0082337632
-0.0089401035
-0.0096240034
-0.010281461
-0.010908278
-0.011500187
-0.012052947
-0.012562385
-0.013024453
-0.013435295
-0.013791319
-0.014089272
-0.014326307
-0.01450005
-0.014608658
-0.014650869
-0.014626041
-0.01453418
-0.01437595
-0.014152669
-0.013866291
-0.013519364
-0.013114986
-0.012656734
-0.01214858
-0.011594807
-0.010999904
-0.010368465
-0.0097050739
-0.0090141934
-0.0083000512
-0.0075665232
-0.0068170215
-0.0060543668
-0.0052807189
-0.0044972399
-0.0037049374
-0.0029002793
-0.0020939943
-0.0012314626
-0.00055613199
0.00037681782
-0.00029679944
-0.00099019029
-0.0017075074
-0.0024305239
-0.0031515739
-0.0038708226
-0.0045877541
-0.0052995338
-0.0060026428
-0.0066937419
-0.0073695212
-0.0080264604
-0.008660822
-0.0092687407
-0.0098462862
-0.0103895
-0.01089444
-0.01135723
-0.01177413
-0.012141592
-0.012456331
-0.012715385
-0.01291618
-0.013056587
-0.013134976
-0.013150257
-0.013101917
-0.012990034
-0.012815294
-0.012578978
-0.01228294
-0.011929571
-0.011521745
-0.011062754
-0.010556227
-0.010006044
-0.0094162323
-0.0087908638
-0.0081339372
-0.0074492612
-0.006740334
-0.006010208
-0.0052614073
-0.0044955928
-0.00371436
-0.002915011
-0.0021087923
-0.0012433949
-0.00055917158
0.001899424
0.0012595853
0.00060300948
-7.270564e-05
-0.00075575074
-0.0014409044
-0.0021278356
-0.0028157316
-0.0035022478
-0.0041845297
-0.0048597561
-0.0055250438
-0.0061772942
-0.0068131869
-0.007429236
-0.008021832
-0.008587269
-0.0091217776
-0.0096215682
-0.010082881
-0.010502043
-0.010875519
-0.011199979
-0.011472357
-0.01168991
-0.011850279
-0.011951541
-0.01199226
-0.011971523
-0.01188897
-0.01174481
-0.011539823
-0.011275351
-0.010953276
-0.010575968
-0.010146233
-0.0096672419
-0.0091424426
-0.0085754642
-0.0079700086
-0.0073297331
-0.0066581276
-0.0059583752
-0.0052332616
-0.0044848433
-0.0037152067
-0.0029223839
-0.0021180675
-0.0012520651
-0.00056125947
0.0031020545
0.0024899924
0.0018635495
0.0012219498
0.00057197833
-8.3101631e-05
-0.0007425742
-0.0014053759
-0.0020695334
-0.0027327098
-0.0033924943
-0.0040463474
-0.0046915165
-0.0053250309
-0.0059437333
-0.006544305
-0.0071232857
-0.0076770986
-0.0082020839
-0.0086945384
-0.0091507613
-0.0095671039