/*--------------------------------*- C++ -*----------------------------------*\
  =========                 |
  \\      /  F ield         | OpenFOAM: The Open Source CFD Toolbox
   \\    /   O peration     | Website:  https://openfoam.org
    \\  /    A nd           | Version:  6
     \\/     M anipulation  |
\*---------------------------------------------------------------------------*/
FoamFile
{
    version     2.0;
    format      ascii;
    class       volVectorField;
    location    "157";
    object      UMean;
}
// * * * * * * * * * * * * * * * * * * * * * * * * * * * * * * * * * * * * * //

dimensions      [0 1 -1 0 0 0 0];

internalField   nonuniform List<vector> 
9200
(
(0.0019177449 0.00074798979 -6.1519813e-20)
(0.016596331 -0.0041758644 4.9100352e-20)
(0.043460558 -0.0092221143 -4.0335715e-20)
(0.079781008 -0.014189984 -6.4135685e-20)
(0.12364213 -0.018873621 1.9875181e-20)
(0.1737679 -0.022841241 3.4863953e-20)
(0.22904405 -0.025808431 -1.3032112e-20)
(0.28844093 -0.027636512 9.8627559e-21)
(0.3509967 -0.028273467 1.8247883e-20)
(0.4157861 -0.027730426 1.6129911e-21)
(0.48189748 -0.026070401 -2.3383645e-20)
(0.54842479 -0.023397231 2.2454793e-20)
(0.61447143 -0.019844542 -4.3795095e-20)
(0.67916383 -0.01556457 -2.3053364e-20)
(0.74167291 -0.01071633 6.4423574e-21)
(0.80124066 -0.0054559216 -2.7508154e-20)
(0.85722475 8.6289274e-05 2.7654711e-20)
(0.90921932 0.0059508656 2.4580827e-20)
(0.95687458 0.012265415 -2.4740697e-22)
(0.99757552 0.015729956 -1.5678893e-21)
(0.0063877158 -0.0021025685 -1.7722003e-20)
(0.030568524 -0.01127732 4.2130156e-20)
(0.067850942 -0.018355721 2.4404671e-20)
(0.11509495 -0.023768842 -1.2222844e-19)
(0.1700802 -0.027721479 -1.3358316e-20)
(0.23127017 -0.030018597 7.8013096e-20)
(0.2972817 -0.030580675 -3.7752281e-20)
(0.36680522 -0.029459062 -9.0160934e-21)
(0.43859464 -0.026774928 3.6907051e-20)
(0.51144511 -0.022700003 -4.6698307e-20)
(0.58418296 -0.017448756 -3.2991099e-20)
(0.65567383 -0.011267881 7.8361499e-20)
(0.72484378 -0.0044243578 4.1601451e-20)
(0.79070852 0.002806293 -7.4012389e-20)
(0.85240656 0.010150007 1.592201e-20)
(0.90923053 0.017338847 -4.0001665e-20)
(0.96066549 0.024124684 -1.5201689e-20)
(1.0064844 0.030351358 7.719197e-20)
(1.0466169 0.035617912 3.3269344e-20)
(1.079358 0.036853948 -8.5803326e-20)
(0.012271124 -0.0048502038 3.7745849e-20)
(0.048276806 -0.017796623 2.2655122e-21)
(0.097746851 -0.026146727 2.2824895e-20)
(0.15718594 -0.031084824 1.0308779e-21)
(0.22408016 -0.033311197 -4.229392e-20)
(0.29660884 -0.032931946 1.9915782e-20)
(0.37308752 -0.030132879 1.3937267e-20)
(0.45189739 -0.025212973 -5.3626806e-20)
(0.53149233 -0.018519144 6.137732e-20)
(0.61039625 -0.01042868 1.5695377e-20)
(0.68721476 -0.0013415968 -5.8875576e-20)
(0.76066438 0.0083330691 -1.9932869e-20)
(0.82961061 0.018193784 9.4217044e-21)
(0.89310683 0.027862639 2.5394221e-20)
(0.95042734 0.036998999 -1.2268049e-20)
(1.0010878 0.045308061 3.0096898e-20)
(1.044855 0.052554328 -2.191104e-20)
(1.0817735 0.058608162 -7.515693e-20)
(1.1120407 0.063211366 -2.4555835e-20)
(1.1348718 0.064515165 5.1365869e-20)
(0.019659822 -0.0072441507 2.4982433e-20)
(0.06982656 -0.023035171 5.2823576e-20)
(0.13311487 -0.031553603 2.0724047e-20)
(0.20575136 -0.034859636 1.397226e-20)
(0.2849486 -0.034235193 1.8450494e-20)
(0.36858756 -0.030156537 -5.0528316e-20)
(0.45466944 -0.023138295 -2.7319061e-20)
(0.5412707 -0.013783211 0)
(0.62657898 -0.0027084861 1.5982559e-20)
(0.70891944 0.0094742375 -6.9534722e-21)
(0.78679222 0.02217012 -1.0522242e-19)
(0.85892021 0.034820604 -1.6727739e-20)
(0.92429471 0.046925081 7.022039e-20)
(0.98220943 0.058059676 4.7453342e-22)
(1.0322761 0.067890624 -1.6861698e-21)
(1.0744177 0.076180269 2.3472828e-20)
(1.1088417 0.082792853 -5.439192e-21)
(1.1360121 0.087722332 -6.5142658e-20)
(1.1565306 0.090951444 -4.8913006e-20)
(1.170414 0.091537125 7.2155874e-20)
(0.028575049 -0.0090010388 -3.8134585e-21)
(0.095100933 -0.02624121 -4.7073074e-21)
(0.17353951 -0.033504045 5.8533588e-20)
(0.25994946 -0.033835709 1.9684972e-20)
(0.35131214 -0.029180869 -3.4052151e-20)
(0.44522301 -0.020454601 1.2494696e-20)
(0.53939688 -0.0085587502 2.8079747e-21)
(0.63166625 0.0055573368 3.6198729e-20)
(0.720055 0.020984412 6.0654134e-21)
(0.80283644 0.036879762 -1.448932e-20)
(0.87859092 0.052483823 6.5085588e-20)
(0.94625814 0.06714403 -6.187838e-20)
(1.0051708 0.080336809 -1.4133119e-19)
(1.0550615 0.091681276 -5.9513121e-21)
(1.0960402 0.10094257 8.8373336e-20)
(1.1285448 0.10802433 0)
(1.153272 0.11295685 1.0901586e-20)
(1.1711063 0.11589952 -1.6221865e-20)
(1.183004 0.11703837 -9.2726721e-21)
(1.1895474 0.11598171 2.1785262e-20)
(0.038947621 -0.0098156464 -5.0361841e-21)
(0.12373133 -0.026653321 4.4776293e-21)
(0.21821629 -0.030980408 -9.0555604e-21)
(0.31844241 -0.026908635 2.9218966e-20)
(0.42123827 -0.017109105 -3.106437e-20)
(0.52397234 -0.0029919465 -1.7872662e-20)
(0.62416044 0.014115529 3.8445903e-20)
(0.71952141 0.032905346 4.7708108e-21)
(0.80808948 0.052194812 -2.6710193e-20)
(0.88829552 0.070960181 7.4428852e-20)
(0.95902728 0.088355229 2.0346068e-22)
(1.0196626 0.10373172 -8.5800774e-20)
(1.0700658 0.11665069 0)
(1.1105456 0.12687872 4.1781893e-20)
(1.1417812 0.13436937 5.7664478e-21)
(1.1647251 0.13923264 -8.1506681e-20)
(1.1804981 0.14170034 -2.0610087e-20)
(1.190293 0.14210368 -1.2993471e-20)
(1.1952691 0.14078485 -1.5414942e-20)
(1.1962829 0.13768071 4.2199723e-20)
(0.0506052 -0.0093819971 -1.7316584e-20)
(0.1550823 -0.023559655 -3.4114201e-21)
(0.26596254 -0.023109613 3.0775855e-20)
(0.37945751 -0.013237924 3.7715496e-20)
(0.49236794 0.0026289591 -2.0673105e-20)
(0.60195215 0.022559527 -7.2912418e-20)
(0.7056816 0.044801709 -2.9974837e-20)
(0.80135888 0.067725323 8.3483591e-20)
(0.88725726 0.089946198 9.4954097e-21)
(0.96220489 0.11036149 -2.6159724e-20)
(1.0256209 0.12815966 1.4201106e-20)
(1.0775026 0.14282336 -4.6130494e-21)
(1.1183628 0.15411506 0)
(1.1491277 0.16204273 2.8643956e-20)
(1.1710107 0.1668108 -8.326058e-20)
(1.18538 0.168763 -3.3013369e-20)
(1.193637 0.16832729 8.4664486e-20)
(1.197119 0.16597672 -4.8153353e-21)
(1.1970209 0.16215151 3.6154657e-21)
(1.1942478 0.1569723 2.8455937e-20)
(0.063266575 -0.007421254 -3.2608021e-20)
(0.18825824 -0.016369742 -8.3938146e-20)
(0.31526345 -0.0092603849 1.4668234e-21)
(0.44089161 0.0076503926 7.31618e-20)
(0.5620897 0.030206 6.5096993e-20)
(0.67618393 0.05597568 -7.405097e-20)
(0.78081702 0.082838646 3.4811965e-22)
(0.87411997 0.10893806 9.0633221e-20)
(0.95485522 0.13281538 5.1434503e-20)
(1.0224746 0.15343393 -5.7295949e-20)
(1.0771031 0.1701632 -9.7257891e-20)
(1.1194585 0.18274668 -3.3207454e-21)
(1.1507207 0.1912474 4.4196401e-20)
(1.1723739 0.19597483 -6.8347564e-21)
(1.1860447 0.19740377 -1.3257746e-20)
(1.1933577 0.19609563 2.0220951e-20)
(1.1958231 0.19263262 4.5645915e-20)
(1.194764 0.18757446 -4.5374999e-20)
(1.1912783 0.1813976 -1.0622269e-19)
(1.1861786 0.1743132 2.5768644e-20)
(0.0765122 -0.0037123623 -3.5942785e-20)
(0.22206514 -0.0046900426 -1.7592696e-19)
(0.36424805 0.010875044 8.6036063e-20)
(0.50031555 0.035804222 9.6557983e-20)
(0.62758156 0.065302095 6.0093762e-20)
(0.74367215 0.096522119 9.0387942e-21)
(0.84665708 0.12709462 -1.109731e-19)
(0.93525275 0.15509063 0)
(1.0089377 0.17914921 -7.2571358e-20)
(1.0679553 0.19846892 -1.6042505e-20)
(1.1132243 0.21274651 5.7305052e-20)
(1.1461842 0.22209386 1.1429461e-20)
(1.1686043 0.2269352 -4.7531244e-20)
(1.1823898 0.22789557 -5.0957723e-20)
(1.1894121 0.22569535 2.540058e-20)
(1.1913795 0.22106245 4.6747934e-20)
(1.1897581 0.21466968 -5.7790244e-20)
(1.1857396 0.20710014 -1.1134704e-19)
(1.1802467 0.19881275 -3.0586689e-21)
(1.1739352 0.19005389 2.7904665e-20)
(0.089767685 0.0018931083 -4.0524484e-21)
(0.25501572 0.011662915 9.0165451e-20)
(0.41072777 0.037286472 -1.4223641e-20)
(0.555062 0.070871516 -8.8575057e-20)
(0.68594931 0.10715237 4.709659e-20)
(0.80157417 0.14302438 5.0443752e-20)
(0.90069058 0.17605784 5.7995142e-21)
(0.98282498 0.20445891 -1.038881e-19)
(1.0483333 0.2271639 -2.62014e-21)
(1.0983278 0.2437753 5.2798479e-20)
(1.1345085 0.25443775 6.2359297e-21)
(1.1589444 0.25969599 -2.0633494e-20)
(1.1738456 0.26034597 -7.8690687e-20)
(1.1813633 0.25729565 -6.3929286e-21)
(1.1834406 0.25145092 4.5050912e-20)
(1.1817228 0.24363503 3.824618e-20)
(1.1775241 0.23454282 2.0289532e-20)
(1.1718408 0.22472448 -5.5134255e-20)
(1.1653958 0.2145836 1.2881754e-20)
(1.158675 0.20437336 8.4969131e-20)
(-0.0013366233 0.0014602081 -7.7350282e-22)
(-0.0047677662 0.003193427 1.8275887e-21)
(-0.010803886 0.0040883338 2.0697319e-21)
(-0.017643189 0.0044218392 -7.5403209e-22)
(-0.024367088 0.0043674572 -2.5900419e-21)
(-0.030547669 0.0040429706 2.7208529e-21)
(-0.035911063 0.0035341446 -8.7547949e-21)
(-0.040283241 0.0029028189 -7.5454115e-21)
(-0.043571072 0.0021928796 1.3445928e-20)
(-0.045735566 0.0014352193 -1.1514113e-20)
(-0.046771571 0.0006513328 -2.0470454e-22)
(-0.046694938 -0.00014408041 4.283168e-21)
(-0.045534012 -0.00094115088 -6.8976762e-22)
(-0.04332382 -0.0017332857 2.5893272e-20)
(-0.04010245 -0.0025157734 2.6468885e-22)
(-0.035910554 -0.0032843013 -4.5888317e-20)
(-0.030793793 -0.0040343213 8.5501504e-21)
(-0.024794569 -0.0047637897 2.6415342e-20)
(-0.017924114 -0.0054712409 -4.8364823e-20)
(-0.010246313 -0.0061071676 -3.0456164e-20)
(-0.0016953218 0.0042491057 -5.7818402e-21)
(-0.0053928878 0.0092691289 9.4190004e-21)
(-0.011171428 0.011844925 -1.0595701e-20)
(-0.017401123 0.012781131 6.1637806e-21)
(-0.023264226 0.01258407 7.2582392e-21)
(-0.028384819 0.011599306 9.7376803e-22)
(-0.032525356 0.010078589 -2.8914008e-20)
(-0.035538135 0.0082033718 -2.3972936e-21)
(-0.03734779 0.0061024227 2.4018025e-20)
(-0.037926871 0.0038663696 -5.9277207e-21)
(-0.03727745 0.0015582377 -2.5289373e-20)
(-0.035419563 -0.00077891442 5.6218494e-21)
(-0.032383579 -0.0031162444 2.5486087e-20)
(-0.028204871 -0.0054345705 1.1649132e-20)
(-0.022920044 -0.0077202714 2.4759048e-20)
(-0.016567431 -0.0099611173 -2.2073304e-20)
(-0.0091969979 -0.012144353 -2.3964339e-20)
(-0.00086213049 -0.014263429 2.3699063e-20)
(0.008498656 -0.016303631 2.9318123e-20)
(0.019078131 -0.018095235 1.6976158e-20)
(-0.0023418675 0.0066474967 -4.6981878e-21)
(-0.0064749133 0.01442933 -4.6038358e-21)
(-0.011681946 0.018379635 -2.0711879e-23)
(-0.016665013 0.019749125 -4.8532954e-22)
(-0.020799617 0.019331023 7.811044e-21)
(-0.023810066 0.017673276 1.2249847e-20)
(-0.025529336 0.01517596 -4.6122933e-21)
(-0.025860935 0.012127603 -2.2133316e-20)
(-0.024764296 0.0087332762 7.6791121e-21)
(-0.022234991 0.0051375373 1.4948648e-20)
(-0.018290054 0.0014410206 6.9289629e-21)
(-0.012958946 -0.0022875171 2.0434348e-20)
(-0.0062776151 -0.0060021889 1.9549715e-21)
(0.0017158032 -0.0096729027 -3.7702822e-20)
(0.010984746 -0.013278662 1.6588534e-21)
(0.021492666 -0.016801025 -2.3933342e-20)
(0.033180054 -0.020222726 -2.7487129e-20)
(0.045968812 -0.02353513 5.0874566e-20)
(0.060041104 -0.026684789 2.8182688e-20)
(0.076089618 -0.029304341 5.9560173e-22)
(-0.0031515959 0.0084412849 -5.884147e-21)
(-0.0077277736 0.018166977 -1.2082758e-20)
(-0.011975369 0.023012694 4.5215102e-21)
(-0.015050184 0.024552051 4.8492459e-21)
(-0.016594213 0.023794488 2.1493808e-21)
(-0.016472239 0.021450714 9.0992866e-21)
(-0.014617533 0.018041347 1.1198105e-20)
(-0.01100749 0.013942131 -1.6906058e-21)
(-0.005652989 0.0094207689 -1.3333083e-20)
(0.0014149391 0.0046664582 -3.340329e-20)
(0.010154607 -0.00018885625 1.9484543e-22)
(0.020518696 -0.0050549404 4.5898409e-20)
(0.032458507 -0.0098719933 -2.0243538e-20)
(0.045925513 -0.014601171 -1.3700731e-20)
(0.060875407 -0.019216508 2.1904331e-22)
(0.077266431 -0.023697289 3.5844938e-20)
(0.095023236 -0.028029107 -1.6984877e-20)
(0.11402463 -0.032211093 -5.8217652e-20)
(0.13457805 -0.036126831 4.9391899e-20)
(0.15808625 -0.039091607 3.5884369e-20)
(-0.0039580444 0.0094854088 -3.8821607e-22)
(-0.0087610413 0.020125874 -1.3523528e-20)
(-0.011549241 0.025256744 -3.973157e-20)
(-0.012007971 0.026629554 -7.4213499e-21)
(-0.01009502 0.025384576 -3.2840675e-21)
(-0.0058455744 0.022346172 7.5088478e-21)
(0.00068286994 0.018120555 -5.7119853e-21)
(0.0094192414 0.013145276 -1.0347395e-20)
(0.020285053 0.0077327863 2.4968445e-20)
(0.033199775 0.0021043635 5.5694777e-21)
(0.048084725 -0.0035851768 -2.8966223e-20)
(0.064862829 -0.0092297746 1.2197083e-20)
(0.083458988 -0.014759155 0)
(0.10380052 -0.020128892 1.3385639e-20)
(0.12582016 -0.025311581 -1.069571e-20)
(0.14945531 -0.030289336 -1.5945993e-20)
(0.17460133 -0.035060791 -8.4612031e-22)
(0.20107181 -0.039653636 -2.7406287e-21)
(0.22925809 -0.043887163 4.8888105e-20)
(0.26141734 -0.046620152 -1.2384242e-20)
(-0.0045714824 0.0097132172 -7.8917361e-21)
(-0.0091147426 0.020126678 2.7247076e-20)
(-0.0097920966 0.024857536 -1.2295326e-20)
(-0.0068496381 0.025688223 -3.0830994e-20)
(-0.00058629545 0.023799906 -3.0049244e-20)
(0.0087730066 0.020077331 -1.6899339e-20)
(0.021028795 0.015172962 -9.7134046e-22)
(0.035999471 0.0095565395 6.3264241e-21)
(0.053523594 0.0035642613 2.1949425e-20)
(0.073456162 -0.0025648506 8.2206466e-21)
(0.095663307 -0.0086634425 -7.9164252e-21)
(0.12001949 -0.014616855 -1.9398633e-21)
(0.14640363 -0.020349678 -4.2307212e-20)
(0.17469634 -0.025815914 -1.3985011e-20)
(0.20478166 -0.030990664 2.1122176e-20)
(0.23654826 -0.035864232 -2.3374422e-20)
(0.269839 -0.040458771 -9.8081781e-21)
(0.30437777 -0.044858973 3.2393242e-20)
(0.34056582 -0.048855747 5.3766413e-20)
(0.3815603 -0.050742783 3.7199135e-21)
(-0.0047952385 0.0091326041 1.7498602e-20)
(-0.0082929137 0.018168537 1.5146421e-20)
(-0.0060196894 0.021808442 5.563671e-20)
(0.0012213385 0.021730771 2.6105808e-20)
(0.012784827 0.019070725 2.0678968e-22)
(0.028246021 0.014719675 -4.4230515e-20)
(0.047251095 0.0093356044 -2.6959525e-20)
(0.069494811 0.003390125 1.1642679e-20)
(0.094714165 -0.0027798831 1.5980298e-20)
(0.122678 -0.0089350765 -1.4319297e-20)
(0.15317534 -0.014908405 -4.8877458e-20)
(0.18600614 -0.020586715 3.2823634e-20)
(0.22097369 -0.025897509 2.1785497e-20)
(0.25787884 -0.030799941 -3.0257347e-20)
(0.2965199 -0.035277997 1.2919264e-20)
(0.33669656 -0.039337181 2.6330456e-20)
(0.37816419 -0.043033169 8.9329525e-21)
(0.42053146 -0.046538275 -1.3284784e-20)
(0.46412222 -0.049692834 -1.4646951e-20)
(0.51291736 -0.050209321 7.9692614e-21)
(-0.0044367962 0.007813318 1.1837779e-20)
(-0.005791005 0.014410687 -2.594713e-20)
(0.00048894505 0.016338447 8.4440402e-21)
(0.013068675 0.015054343 3.6886891e-20)
(0.030964617 0.011567423 5.6509728e-20)
(0.053549137 0.0067250169 2.224193e-20)
(0.080304413 0.0011515848 -6.4059338e-21)
(0.11078284 -0.0047119912 -1.3488882e-20)
(0.14459886 -0.010552803 -6.9011673e-21)
(0.18140904 -0.016150863 3.772211e-20)
(0.22089307 -0.021355925 -5.2048136e-21)
(0.26273946 -0.026070404 -1.8472301e-20)
(0.30663459 -0.030237298 -2.143097e-20)
(0.35225494 -0.03383263 -5.2028238e-20)
(0.39926621 -0.036860676 2.5242927e-20)
(0.44733146 -0.039353749 -1.5315254e-20)
(0.49607974 -0.041414502 2.8431551e-20)
(0.54499175 -0.043337549 2.296644e-20)
(0.59424953 -0.045133874 -9.0434737e-20)
(0.64846417 -0.044097176 4.2815098e-22)
(-0.0033149519 0.0058723391 2.304393e-20)
(-0.0011220382 0.0091485262 -2.8418772e-20)
(0.010444673 0.0088932051 -4.8062578e-20)
(0.029553967 0.0062421636 -2.94278e-20)
(0.054900222 0.0020065785 -2.2233919e-21)
(0.085648396 -0.0030585707 1.4325563e-20)
(0.12110319 -0.0084016123 -3.1076408e-21)
(0.16065538 -0.013644399 1.973344e-20)
(0.20376816 -0.018525533 9.6416601e-21)
(0.24994986 -0.022868123 -1.2431573e-20)
(0.29872885 -0.026559963 9.9120708e-21)
(0.34963563 -0.029538593 -2.6177129e-20)
(0.40219023 -0.031780554 9.1873102e-21)
(0.45589416 -0.033294681 1.8360463e-20)
(0.5102297 -0.034118047 -3.121916e-21)
(0.56467032 -0.034317701 1.9773081e-21)
(0.61866581 -0.034044308 -6.5501781e-22)
(0.67154912 -0.033698688 2.151833e-20)
(0.72333047 -0.033484051 3.9723988e-21)
(0.77901671 -0.030777283 -2.6194308e-21)
(-0.0012604946 0.0034621706 2.5201294e-20)
(0.0061636104 0.002798323 6.1540594e-20)
(0.024494047 0.00013176998 -5.2212604e-20)
(0.051439339 -0.0038184944 -1.0689977e-20)
(0.085386184 -0.0085112713 2.187976e-20)
(0.12528822 -0.013331169 2.308058e-21)
(0.17025676 -0.017839687 -3.2166587e-20)
(0.21949373 -0.021758298 7.5721924e-21)
(0.27227459 -0.024910559 7.6883003e-21)
(0.32791642 -0.027193964 -2.8539692e-20)
(0.38575042 -0.028564328 1.401294e-21)
(0.44510496 -0.029023011 -4.0617335e-20)
(0.50529653 -0.028606459 -3.9738601e-20)
(0.56562712 -0.027377818 7.1855865e-20)
(0.62538744 -0.025419578 6.0787007e-21)
(0.68386431 -0.022832507 -1.6546425e-20)
(0.74032642 -0.019775782 2.1018501e-20)
(0.79395184 -0.016552333 -9.8232939e-22)
(0.84428871 -0.013187926 2.1159762e-20)
(0.89500772 -0.0081745601 -2.1942512e-20)
(-0.0011149706 -0.0063936613 6.3979676e-20)
(0.0095901458 -0.0069084212 1.6844705e-20)
(0.021730722 -0.007318027 -3.7551487e-20)
(0.034948436 -0.0075506695 1.8177631e-20)
(0.04896072 -0.0076909958 0)
(0.063698343 -0.0077688018 0)
(0.0790956 -0.0077871489 -2.4134238e-20)
(0.095065855 -0.0077541368 -1.7160055e-20)
(0.11153112 -0.0076797663 2.0040968e-20)
(0.12842509 -0.0075713891 1.8850806e-20)
(0.14568677 -0.0074346164 1.0358085e-21)
(0.16325872 -0.0072743867 -1.045406e-20)
(0.18108742 -0.0070950156 8.6608242e-21)
(0.19912297 -0.0069001684 1.8266091e-20)
(0.21731845 -0.0066929836 -5.4711155e-21)
(0.23562959 -0.0064761849 -1.0045664e-20)
(0.25401452 -0.0062521479 -4.2321616e-21)
(0.27243363 -0.0060229525 -4.2155315e-21)
(0.29084943 -0.0057904299 6.7983788e-22)
(0.30922648 -0.0055561997 1.2053125e-21)
(0.32753137 -0.0053216987 2.5837563e-21)
(0.3457327 -0.0050882023 6.4142199e-21)
(0.36380111 -0.0048568418 1.0063508e-22)
(0.38170931 -0.0046286172 -3.3056633e-21)
(0.39943209 -0.0044044069 1.1866745e-22)
(0.41694635 -0.0041849761 -5.4587393e-22)
(0.43423112 -0.0039709834 1.1687362e-21)
(0.45126756 -0.0037629869 9.363536e-22)
(0.46803896 -0.0035614499 -1.2880603e-21)
(0.4845307 -0.003366747 -9.1249687e-23)
(0.5007302 -0.0031791696 -7.4647059e-23)
(0.51662691 -0.0029989327 -3.1997013e-22)
(0.5322122 -0.0028261812 -4.1202933e-22)
(0.54747934 -0.0026609965 1.0488829e-22)
(0.56242338 -0.0025034042 -1.2287078e-22)
(0.5770411 -0.0023533809 -1.863464e-22)
(0.59133093 -0.0022108619 2.1138866e-22)
(0.60529294 -0.0020757491 2.372445e-22)
(0.61892868 -0.001947921 -4.2666421e-23)
(0.63224158 -0.0018272365 -1.668469e-22)
(0.64523574 -0.0017135649 9.9678193e-24)
(0.65792014 -0.001606741 -1.8594796e-23)
(0.67029628 -0.0015067817 7.4521485e-23)
(0.68239752 -0.0014133014 -3.1925626e-23)
(0.69417365 -0.0013275467 -1.4247521e-22)
(0.70583823 -0.0012463376 1.1197208e-23)
(0.71686148 -0.0011816642 8.9010436e-24)
(0.72891002 -0.0011016726 -5.9938548e-24)
(0.73743606 -0.0011130732 2.4397579e-23)
(0.75523671 -0.00094450879 3.7637693e-22)
(0.029421459 -0.018818573 -1.4462402e-20)
(0.039118554 -0.020381208 -6.8310206e-20)
(0.050733511 -0.021585167 -3.3395788e-20)
(0.063396706 -0.022247852 4.1394431e-20)
(0.076707753 -0.022650623 1.5688973e-20)
(0.090678451 -0.022879948 -1.9693566e-20)
(0.10527607 -0.022937014 5.3889219e-21)
(0.12041707 -0.022844127 2.6534258e-20)
(0.13603092 -0.022631045 -2.8653605e-22)
(0.15206104 -0.022318895 -8.0901755e-21)
(0.1684537 -0.021923517 -1.2863084e-20)
(0.18515688 -0.021459072 -9.0018398e-21)
(0.20212168 -0.020938028 1.7983182e-20)
(0.21930204 -0.020370988 9.8406965e-21)
(0.23665415 -0.019767054 -1.6107011e-20)
(0.25413628 -0.019134159 -5.9952294e-21)
(0.27170858 -0.018479255 3.0647545e-21)
(0.28933308 -0.01780845 8.0375162e-21)
(0.30697363 -0.017127145 6.9097572e-21)
(0.3245958 -0.016440132 -7.1034654e-21)
(0.34216703 -0.015751678 -3.4515728e-21)
(0.35965653 -0.015065582 1.642728e-21)
(0.37703543 -0.014385222 7.6068544e-22)
(0.39427676 -0.013713595 1.2552765e-21)
(0.41135553 -0.013053336 2.5781476e-22)
(0.42824874 -0.012406751 -3.8972839e-22)
(0.44493543 -0.011775825 -7.5605557e-22)
(0.46139671 -0.011162249 1.1043691e-21)
(0.47761568 -0.010567431 8.852559e-22)
(0.49357751 -0.0099925122 -3.1543711e-22)
(0.50926933 -0.0094383901 6.109168e-22)
(0.52468025 -0.0089057312 -2.174401e-22)
(0.53980124 -0.008394993 -4.2719754e-22)
(0.5546251 -0.007906444 -6.2507407e-22)
(0.56914641 -0.0074401843 3.9360026e-22)
(0.58336141 -0.0069961679 -1.4720226e-22)
(0.59726801 -0.0065742252 2.4310811e-22)
(0.61086568 -0.0061740856 -4.7487967e-22)
(0.62415539 -0.0057954079 4.760052e-22)
(0.63713994 -0.0054377917 5.7712112e-23)
(0.64982283 -0.0051008675 -4.1063387e-23)
(0.66221238 -0.0047841607 2.2900122e-22)
(0.67430954 -0.0044877419 3.0862315e-22)
(0.68614678 -0.0042104739 2.3706726e-22)
(0.69767394 -0.0039561035 2.5819333e-22)
(0.70910166 -0.0037151376 -1.4201276e-23)
(0.71990615 -0.00352339 1.326798e-22)
(0.73173198 -0.003285838 1.1582866e-22)
(0.74009305 -0.0033203457 -2.0802754e-22)
(0.75759747 -0.0028196048 2.0319665e-24)
(0.08864277 -0.030122033 1.0617291e-20)
(0.096354931 -0.032743045 4.0877869e-21)
(0.10682582 -0.034688614 -1.4450377e-20)
(0.11835508 -0.035706504 -1.812195e-21)
(0.13025423 -0.03633742 1.6518523e-20)
(0.14269222 -0.036719013 -1.5871457e-20)
(0.1557087 -0.036831397 -3.2072358e-20)
(0.16922246 -0.036705243 1.5702859e-20)
(0.18317415 -0.036389251 1.9448116e-20)
(0.19752517 -0.035916162 -1.2308036e-20)
(0.21223494 -0.035309539 1.0548213e-21)
(0.22726084 -0.034591 8.3093836e-21)
(0.24256186 -0.033779953 -1.5958315e-20)
(0.25809861 -0.032892968 4.1292671e-21)
(0.27383265 -0.031944338 7.9119592e-21)
(0.28972647 -0.03094663 -7.4021314e-22)
(0.30574366 -0.029910948 -2.1001966e-22)
(0.32184897 -0.028847131 -7.7237693e-21)
(0.33800838 -0.027763934 4.6552957e-21)
(0.35418919 -0.026669186 8.7345046e-21)
(0.37036011 -0.025569896 -3.9197583e-21)
(0.38649138 -0.024472343 -2.1543526e-21)
(0.4025548 -0.023382138 8.332775e-22)
(0.41852391 -0.02230428 -1.7980194e-21)
(0.43437399 -0.021243189 1.2921006e-21)
(0.45008215 -0.020202743 6.826629e-22)
(0.46562736 -0.019186305 1.9079661e-21)
(0.48099051 -0.018196748 -2.2596555e-21)
(0.49615438 -0.017236481 2.5601705e-21)
(0.51110366 -0.016307478 6.0636585e-22)
(0.52582493 -0.015411303 6.9811854e-22)
(0.54030659 -0.014549141 2.9323327e-22)
(0.55453887 -0.01372183 1.0739788e-21)
(0.56851373 -0.012929892 -1.6328992e-21)
(0.58222482 -0.012173571 4.5873755e-22)
(0.59566742 -0.011452865 2.6496417e-22)
(0.60883839 -0.010767569 -9.3054374e-23)
(0.62173616 -0.010117305 -1.3230589e-23)
(0.63436057 -0.0095015768 -4.1267577e-22)
(0.64671332 -0.0089197892 2.3964836e-22)
(0.65879673 -0.0083713947 -2.7703472e-23)
(0.67061795 -0.0078556681 6.0357617e-22)
(0.68217686 -0.0073727872 -2.779677e-22)
(0.69350432 -0.0069209199 3.3538819e-23)
(0.70455023 -0.0065063216 8.6966771e-23)
(0.71551978 -0.0061133432 -1.0138672e-22)
(0.72590051 -0.005801093 -1.7153711e-22)
(0.73729479 -0.0054131611 5.6330647e-22)
(0.7453356 -0.0054713694 1.8499649e-22)
(0.76226533 -0.004653429 -8.6135554e-22)
(0.17345813 -0.039533815 1.9506301e-21)
(0.17825161 -0.043198486 -1.1913406e-20)
(0.18683194 -0.045807546 6.572187e-21)
(0.19659616 -0.047094633 -1.4390903e-20)
(0.20636678 -0.047925323 -2.1238018e-21)
(0.21651539 -0.048477223 1.0316918e-20)
(0.22720239 -0.048686479 -1.1393125e-20)
(0.23834598 -0.048582848 9.3540777e-22)
(0.24989491 -0.048231295 1.3565206e-20)
(0.26183371 -0.047673459 4.0035337e-21)
(0.27413893 -0.046937413 -6.4470892e-21)
(0.286779 -0.046049595 -3.3705335e-21)
(0.29972207 -0.045034526 -5.4132894e-21)
(0.31293655 -0.043913429 -6.9256684e-21)
(0.32639015 -0.042704782 2.5909946e-21)
(0.34005016 -0.04142502 4.9578161e-23)
(0.35388396 -0.040088866 1.656921e-21)
(0.36785924 -0.038709521 -3.3808065e-21)
(0.38194429 -0.037298866 -4.7239497e-21)
(0.39610815 -0.03586762 2.587635e-21)
(0.41032081 -0.034425468 3.6362883e-21)
(0.42455343 -0.032981153 -1.9538841e-21)
(0.43877847 -0.03154254 1.7260882e-21)
(0.45296979 -0.030116681 -5.6190569e-22)
(0.46710281 -0.028709848 -4.4645647e-21)
(0.48115455 -0.027327578 -3.0718431e-21)
(0.49510374 -0.0259747 -3.3772379e-22)
(0.50893083 -0.02465537 2.6211745e-22)
(0.52261802 -0.023373103 -2.2032501e-21)
(0.53614928 -0.022130807 -1.1595574e-21)
(0.54951033 -0.020930824 2.1045651e-22)
(0.56268862 -0.019774964 -1.4578955e-21)
(0.57567329 -0.018664553 -9.3113248e-23)
(0.58845515 -0.017600478 -5.4719591e-22)
(0.60102658 -0.016583233 -4.2505888e-22)
(0.61338154 -0.015612967 -7.6407096e-22)
(0.62551551 -0.014689541 -1.1496376e-21)
(0.63742546 -0.013812574 6.0462867e-24)
(0.64910977 -0.012981516 -3.3162406e-24)
(0.6605686 -0.012195671 -6.5856354e-22)
(0.67180276 -0.011454408 1.4874472e-23)
(0.68281778 -0.010756841 -4.6187212e-22)
(0.69361211 -0.010103333 -7.0065168e-22)
(0.70421445 -0.00949145 5.4330886e-22)
(0.71457483 -0.0089299441 1.3205579e-23)
(0.72489073 -0.008397314 2.7026809e-22)
(0.7346661 -0.0079749563 -1.9881418e-22)
(0.74544255 -0.0074483393 -3.8082543e-22)
(0.75302493 -0.0075307511 -3.680271e-24)
(0.76912884 -0.0064201676 4.9559286e-22)
(0.27967058 -0.046240222 -2.382659e-20)
(0.28063433 -0.050926857 5.0981529e-20)
(0.28644044 -0.054111034 1.0899543e-20)
(0.29372545 -0.055608226 -1.7088278e-20)
(0.30065439 -0.056647959 -2.7042176e-21)
(0.30778594 -0.057423343 2.2593879e-21)
(0.3154479 -0.057809925 -2.2909505e-21)
(0.32355982 -0.057826402 -4.9526489e-21)
(0.33206735 -0.057546858 -4.2335317e-21)
(0.34097683 -0.057018412 -1.2809502e-20)
(0.35028343 -0.056271195 1.936864e-20)
(0.3599659 -0.055333775 7.2348578e-21)
(0.37000008 -0.054233609 -1.730865e-20)
(0.38036109 -0.052995192 9.8016829e-21)
(0.39102197 -0.051640248 7.7633946e-21)
(0.40195396 -0.050188405 -1.4678547e-22)
(0.41312738 -0.048657536 -2.65583e-21)
(0.42451214 -0.04706394 -4.4884618e-21)
(0.43607812 -0.045422485 -1.6956535e-21)
(0.44779548 -0.043746748 -1.4974405e-21)
(0.45963495 -0.04204912 -3.5310111e-21)
(0.47156808 -0.040340886 0)
(0.48356747 -0.038632282 -1.565646e-21)
(0.4956069 -0.036932542 4.0165711e-21)
(0.5076615 -0.03524994 5.8292763e-21)
(0.51970785 -0.033591825 -8.9323395e-22)
(0.53172406 -0.031964649 -3.4678302e-21)
(0.54368983 -0.030374009 3.6721549e-21)
(0.55558646 -0.028824684 -5.92158e-23)
(0.56739692 -0.027320671 3.9419825e-21)
(0.5791058 -0.025865241 -4.9447037e-22)
(0.59069932 -0.024460981 1.8423183e-21)
(0.60216531 -0.023109851 -9.5942079e-22)
(0.61349314 -0.021813243 4.7188184e-22)
(0.62467371 -0.02057204 -5.8908296e-22)
(0.63569943 -0.01938668 5.9539035e-22)
(0.64656415 -0.018257221 5.7579747e-22)
(0.65726318 -0.017183406 4.8467778e-22)
(0.66779318 -0.016164754 -1.1872219e-21)
(0.67815257 -0.01520059 8.5062773e-22)
(0.68834041 -0.014290312 -4.4259166e-22)
(0.69836036 -0.013432981 -1.487129e-21)
(0.70820929 -0.012629241 1.8986312e-21)
(0.71791329 -0.011876173 -5.1890719e-23)
(0.72742279 -0.011184989 -2.1686754e-22)
(0.73692564 -0.010528757 -6.6978513e-24)
(0.74594673 -0.010009739 -2.2709682e-22)
(0.75595079 -0.0093598165 -6.5138431e-22)
(0.7629607 -0.0094667744 7.4299661e-22)
(0.7780262 -0.0080960834 -5.2713841e-23)
(0.4021309 -0.049283508 -2.0005555e-20)
(0.39841034 -0.055029587 1.3425938e-20)
(0.40047552 -0.058745921 4.2075973e-21)
(0.40449699 -0.060485785 -8.3244124e-21)
(0.40791542 -0.061824915 1.3010523e-20)
(0.41138172 -0.062932538 8.3809647e-21)
(0.41541414 -0.063627649 -1.2993246e-20)
(0.41995064 -0.063914801 -6.4503921e-21)
(0.42491876 -0.063864421 1.3422635e-20)
(0.4303345 -0.06352279 -1.7054938e-20)
(0.43620888 -0.062920801 -1.4684903e-20)
(0.44252889 -0.062087682 1.5757256e-20)
(0.44927449 -0.06105201 7.0969591e-21)
(0.4564243 -0.059840387 -5.6094013e-21)
(0.46395422 -0.058477224 -1.1388311e-21)
(0.47183745 -0.056985036 -3.4135863e-21)
(0.48004549 -0.055384713 4.6247255e-21)
(0.48854895 -0.053695649 3.6959095e-21)
(0.49731799 -0.051935814 -3.0812362e-21)
(0.50632275 -0.050121824 3.118085e-21)
(0.5155337 -0.048268998 3.038696e-21)
(0.52492193 -0.04639141 -3.4496466e-21)
(0.53445939 -0.044501921 3.6573769e-22)
(0.54411912 -0.042612213 -3.16014e-21)
(0.55387536 -0.040732816 8.5437165e-21)
(0.56370371 -0.038873136 6.7054434e-21)
(0.57358121 -0.037041493 1.1450343e-21)
(0.58348637 -0.035245153 -1.8704458e-21)
(0.59339926 -0.033490373 4.5212066e-21)
(0.60330154 -0.03178245 8.4495506e-21)
(0.61317638 -0.03012578 2.4412937e-21)
(0.62300855 -0.028523911 3.8820842e-21)
(0.63278433 -0.026979619 2.2066606e-21)
(0.64249153 -0.025494969 9.0217726e-22)
(0.6521194 -0.024071398 -2.3839941e-22)
(0.66165866 -0.022709784 3.2521037e-21)
(0.67110143 -0.021410532 7.2902995e-22)
(0.68044127 -0.020173653 3.2968278e-22)
(0.68967305 -0.018998868 5.737416e-23)
(0.69879336 -0.017885652 1.3053466e-21)
(0.70779946 -0.016833555 4.0474426e-23)
(0.71669307 -0.015841706 6.3158911e-22)
(0.72546941 -0.014911123 -1.267567e-22)
(0.73415182 -0.014038531 -4.4813097e-22)
(0.7426914 -0.01323754 -2.1864353e-22)
(0.75126492 -0.012476286 -5.9715148e-22)
(0.75942211 -0.011876157 2.6628564e-22)
(0.76853748 -0.011120918 -1.749215e-22)
(0.77489021 -0.011252588 -4.2531188e-22)
(0.78875137 -0.0096601425 2.9625356e-22)
(0.53465324 -0.047748933 3.3623342e-21)
(0.52562135 -0.05460526 -1.9501374e-20)
(0.52302561 -0.058869836 -2.6974785e-21)
(0.52301977 -0.061046266 5.7902503e-21)
(0.52240993 -0.0629148 3.8061083e-21)
(0.52175008 -0.064550994 8.6012821e-22)
(0.52171553 -0.065747351 7.585712e-21)
(0.52230465 -0.066509705 8.3705451e-21)
(0.52342443 -0.066894736 1.0211991e-20)
(0.52507812 -0.066939179 -1.2110759e-20)
(0.52728216 -0.066673 -2.3487149e-20)
(0.53002873 -0.066126148 -4.7448902e-21)
(0.53329827 -0.065327885 1.7169223e-20)
(0.53706863 -0.064306536 1.3650179e-20)
(0.54131533 -0.063089245 -5.6812494e-21)
(0.54601108 -0.061701724 7.0797584e-22)
(0.55112655 -0.060168253 -4.4076008e-21)
(0.5566313 -0.058511735 3.4453486e-21)
(0.56249434 -0.056753685 -2.9433496e-22)
(0.56868454 -0.054914202 -2.0119884e-21)
(0.57517105 -0.053011981 8.7804738e-21)
(0.58192355 -0.051064309 -5.7242267e-22)
(0.58891256 -0.04908708 6.7779742e-22)
(0.59610964 -0.047094805 -3.8092253e-22)
(0.60348752 -0.045100626 -4.5999678e-21)
(0.61102025 -0.043116347 4.4860065e-21)
(0.61868332 -0.041152459 1.8199e-21)
(0.62645365 -0.039218186 -3.5011874e-21)
(0.63430972 -0.037321531 -4.0677409e-21)