/*--------------------------------*- C++ -*----------------------------------*\
  =========                 |
  \\      /  F ield         | OpenFOAM: The Open Source CFD Toolbox
   \\    /   O peration     | Website:  https://openfoam.org
    \\  /    A nd           | Version:  6
     \\/     M anipulation  |
\*---------------------------------------------------------------------------*/
FoamFile
{
    version     2.0;
    format      ascii;
    class       volScalarField;
    location    "197";
    object      pPrime2Mean;
}
// * * * * * * * * * * * * * * * * * * * * * * * * * * * * * * * * * * * * * //

dimensions      [0 4 -4 0 0 0 0];

internalField   nonuniform List<scalar> 
9200
(
0.057065838
0.047303658
0.039038791
0.033658343
0.029363778
0.025744183
0.022620917
0.019902886
0.017529457
0.015452075
0.013630522
0.012031091
0.010625323
0.0093890447
0.0083016205
0.0073454075
0.0065054719
0.0057693585
0.0051278305
0.0045688824
0.04627666
0.038287134
0.031605857
0.027214434
0.023691359
0.020713318
0.01813996
0.015899695
0.013944309
0.012234935
0.010739117
0.0094294017
0.0082823693
0.0072778893
0.006398552
0.005629262
0.0049570206
0.0043706276
0.0038596583
0.0034092575
0.036160162
0.029875578
0.024681468
0.021221366
0.018423208
0.016046468
0.013987479
0.012193515
0.010628571
0.0092631863
0.0080722804
0.0070341645
0.0061299012
0.0053428297
0.0046582282
0.0040630904
0.0035459957
0.0030968657
0.0027055854
0.0023588818
0.026997018
0.022295757
0.018447604
0.015834505
0.01369477
0.011863174
0.0102701
0.0088805235
0.0076699597
0.0066176047
0.0057049319
0.0049151935
0.0042331717
0.0036450447
0.0031383277
0.0027018521
0.002325738
0.0020012295
0.0017196869
0.0014710614
0.019040101
0.015751494
0.013071828
0.011198495
0.0096335225
0.0082773379
0.0070907501
0.0060546946
0.0051549693
0.004378184
0.0037111748
0.003141079
0.0026555606
0.0022430556
0.0018929891
0.0015959213
0.0013435926
0.001128825
0.00094497662
0.00078530782
0.012512263
0.010420388
0.0087027499
0.0074426909
0.0063543217
0.0053924535
0.004543734
0.0038026457
0.003163449
0.0026184962
0.0021585465
0.0017734989
0.0014531202
0.0011876379
0.00096815669
0.00078688464
0.0006371824
0.00051348002
0.00041105552
0.00032575102
0.0075998416
0.0064495678
0.0054667422
0.0046783545
0.0039569124
0.0032991966
0.002712184
0.0022008386
0.0017655788
0.0014025757
0.0011050266
0.00086456105
0.00067241073
0.00052023792
0.00040062725
0.00030729334
0.00023507633
0.00017983571
0.00013839879
0.00010834601
0.0044479121
0.0039527702
0.0034656027
0.0029964794
0.0025237116
0.0020730013
0.0016653676
0.0013126898
0.0010189709
0.00078225174
0.00059681129
0.00045515288
0.0003494669
0.00027253742
0.00021818679
0.00018139216
0.00015820118
0.0001455917
0.00014146896
0.00014442615
0.0031562497
0.0030071525
0.0027723204
0.0024632069
0.0021155993
0.0017705499
0.0014559619
0.0011866028
0.00096739358
0.00079647967
0.00066815011
0.00057517046
0.00051031359
0.00046718478
0.00044053349
0.00042625315
0.00042122632
0.00042315712
0.00043053286
0.00044236454
0.0037749977
0.0036506901
0.0034265555
0.0031154684
0.002767786
0.0024254905
0.0021154957
0.0018512887
0.0016362585
0.0014672665
0.0013378721
0.0012406864
0.0011687416
0.0011161119
0.0010780684
0.0010509792
0.0010321169
0.0010194745
0.001011633
0.0010075115
0.13549657
0.11395541
0.094179
0.081674078
0.071745324
0.063411796
0.056237213
0.049986202
0.044513048
0.039703229
0.035463184
0.031715454
0.028395159
0.025447452
0.022825628
0.020489689
0.018405207
0.016541355
0.014869187
0.013371961
0.13377069
0.11239356
0.09284373
0.08048251
0.070678191
0.062450939
0.055368332
0.049198868
0.043798509
0.039053835
0.034872171
0.031176808
0.027903508
0.024997987
0.022414042
0.020112126
0.018058266
0.016222084
0.014574471
0.013099265
0.13025036
0.10930135
0.090241082
0.078187372
0.068637815
0.060625998
0.053728807
0.047721999
0.042465317
0.037848072
0.033779756
0.030185425
0.027002324
0.02417743
0.021665632
0.01942835
0.017432531
0.015648697
0.014047835
0.012614085
0.12499716
0.10475391
0.086446263
0.07485992
0.065688712
0.057995394
0.05137213
0.045604929
0.040559205
0.036128528
0.032225786
0.028778793
0.025727076
0.023019543
0.02061273
0.018469475
0.016558013
0.014850168
0.013317508
0.011943995
0.11815454
0.098880286
0.081569207
0.07059848
0.061919101
0.054638677
0.048370554
0.042913651
0.038140728
0.033950988
0.030261833
0.027004747
0.024122291
0.021565911
0.019294295
0.017272101
0.015469122
0.013858788
0.012414056
0.011118494
0.10991749
0.091851406
0.075752479
0.065528679
0.057440911
0.050656129
0.044814331
0.039729658
0.035283679
0.031382427
0.027948813
0.024918797
0.02223864
0.019862882
0.017752811
0.015875262
0.014201795
0.012707592
0.01136791
0.010166399
0.10052272
0.083872238
0.069164822
0.059797833
0.052384739
0.04616426
0.040807742
0.036146441
0.032071995
0.028498289
0.025354576
0.022582004
0.020131127
0.017960082
0.016033183
0.014319779
0.012793409
0.011431022
0.010210838
0.0091176426
0.090240094
0.075174531
0.061995728
0.053570411
0.046895802
0.041292139
0.036465818
0.032266644
0.028597322
0.025380416
0.022552217
0.020059655
0.017858105
0.015909758
0.014182361
0.012648147
0.011282944
0.010065569
0.0089775988
0.0080059986
0.079362856
0.06600818
0.054448598
0.047022032
0.041128583
0.036176665
0.031910176
0.028198347
0.024955715
0.022114161
0.019617568
0.017419133
0.015479482
0.013765258
0.012248005
0.010903211
0.0097094362
0.0086477804
0.0077036317
0.0068661974
0.068197027
0.056634246
0.046733503
0.040331835
0.035239415
0.030955583
0.027262586
0.024049377
0.021242783
0.018784427
0.016626133
0.014727668
0.013055164
0.011579944
0.01027759
0.0091271883
0.0081107288
0.0072130235
0.006424537
0.0057349201
0.01179244
0.010217721
0.0088825148
0.0077233408
0.0067331076
0.0058849224
0.0051554532
0.0045246863
0.0039763519
0.0034972385
0.0030766474
0.0027060066
0.0023784343
0.0020883328
0.0018310849
0.0016028325
0.0014003074
0.0012207029
0.0010615805
0.00092079908
0.00079646222
0.00068687664
0.00059052077
0.00050601997
0.00043212745
0.00036770936
0.00031173311
0.00026325793
0.00022142734
0.00018546279
0.00015465824
0.00012837526
0.00010603868
8.7132251e-05
7.1194743e-05
5.7815834e-05
4.6632413e-05
3.7324557e-05
2.9612249e-05
2.3250847e-05
1.8030016e-05
1.3764133e-05
1.0305848e-05
7.5009875e-06
5.2898225e-06
3.4674327e-06
2.2087731e-06
1.0142947e-06
1.3393337e-06
2.2042871e-06
0.011563558
0.010041136
0.0087441756
0.0076143845
0.0066482784
0.0058195681
0.0051051564
0.0044857872
0.0039460244
0.0034733186
0.0030575234
0.0026905223
0.0023657696
0.0020778979
0.0018224461
0.0015956623
0.0013943506
0.0012157554
0.0010574752
0.00091739753
0.0007936484
0.00068455308
0.00058860544
0.00050444386
0.00043083259
0.00036664722
0.00031086314
0.00026254637
0.00022084616
0.00018498878
0.00015427222
0.00012806144
0.00010578404
8.6926105e-05
7.1028309e-05
5.7681902e-05
4.6525067e-05
3.723894e-05
2.9544376e-05
2.3197453e-05
1.7988423e-05
1.3732158e-05
1.0281712e-05
7.4832765e-06
5.2773815e-06
3.4593647e-06
2.2045273e-06
1.0117955e-06
1.3312507e-06
2.1615005e-06
0.011160723
0.0097324208
0.0085046951
0.0074288111
0.0065060472
0.005711695
0.0050233818
0.0044233629
0.003897855
0.0034356196
0.0030275499
0.002666347
0.0023460508
0.002061685
0.0018090475
0.0015845588
0.00138514
0.0012081162
0.0010511449
0.0009121586
0.00078931896
0.0006809804
0.00058566123
0.0005020205
0.00042883999
0.00036501018
0.00030951913
0.00026144355
0.00021994171
0.0001842474
0.0001536649
0.00012756435
0.00010537765
8.6594398e-05
7.0758143e-05
5.7462487e-05
4.6347525e-05
3.7095959e-05
2.9429923e-05
2.3106547e-05
1.7916949e-05
1.3676724e-05
1.0239537e-05
7.4521092e-06
5.2554027e-06
3.4450769e-06
2.1971254e-06
1.0074116e-06
1.3151033e-06
2.0779317e-06
0.01060865
0.0093106118
0.0081812289
0.0071832237
0.0063212317
0.0055735436
0.0049198432
0.0043449045
0.0038375091
0.0033884326
0.0029900432
0.0026361137
0.0023214231
0.0020414795
0.0017923959
0.0015708037
0.0013737678
0.0011987154
0.0010433794
0.00090575029
0.0007840363
0.00067662997
0.00058208137
0.0004990764
0.00042641949
0.00036302029
0.00030788298
0.00026009786
0.00021883449
0.00018333609
0.00015291471
0.00012694686
0.00010486966
8.6176954e-05
7.041571e-05
5.7182317e-05
4.6119116e-05
3.6910632e-05
2.9280481e-05
2.2987008e-05
1.7822335e-05
1.3602895e-05
1.018307e-05
7.4102084e-06
5.2257821e-06
3.4258539e-06
2.1871953e-06
1.0016871e-06
1.2908894e-06
1.957872e-06
0.0099316996
0.0087951241
0.0077914514
0.0068945425
0.0061087069
0.0054169277
0.0048034447
0.0042570006
0.0037698533
0.003335432
0.0029478981
0.0026022035
0.0022939075
0.0020190291
0.0017740171
0.0015557313
0.0013613983
0.001188564
0.0010350513
0.00089892118
0.00077843864
0.00067204261
0.00057832154
0.00049599336
0.00042388932
0.00036094139
0.00030617237
0.00025868798
0.00021767049
0.00018237356
0.0001521177
0.00012628632
0.00010432206
8.572318e-05
7.0040191e-05
5.6872296e-05
4.5864072e-05
3.6701842e-05
2.9110664e-05
2.2850058e-05
1.7713122e-05
1.3517095e-05
1.0117072e-05
7.3610271e-06
5.1909197e-06
3.4033145e-06
2.1755054e-06
9.9531764e-07
1.2588471e-06
1.8076208e-06
0.0091507481
0.0082036353
0.0073513286
0.006576559
0.005879357
0.0052494283
0.0046790847
0.0041629023
0.0036972611
0.003278544
0.0029028181
0.0025661971
0.0022649879
0.0019957177
0.0017551861
0.0015405013
0.0013490732
0.0011785872
0.0010269741
0.00089238012
0.00077313861
0.00066774388
0.00057482952
0.00049315047
0.00042156843
0.00035904032
0.00030460927
0.00025739756
0.00021660086
0.00018148353
0.00015137466
0.00012566439
0.00010380065
8.5285842e-05
6.9673661e-05
5.6565781e-05
4.560868e-05
3.6490169e-05
2.8936467e-05
2.2708031e-05
1.7598723e-05
1.3426428e-05
1.004681e-05
7.3083919e-06
5.1534622e-06
3.3792324e-06
2.1628598e-06
9.8904442e-07
1.2193624e-06
1.634824e-06
0.0082861963
0.0075538434
0.0068750924
0.0062376225
0.005636758
0.0050717593
0.004546205
0.004061993
0.0036196619
0.0032183012
0.002855774
0.0025293256
0.0022360139
0.0019729096
0.0017372142
0.0015263334
0.0013379014
0.0011697759
0.0010200216
0.00088688944
0.00076879514
0.00066429871
0.00057208615
0.00049095433
0.00041979853
0.00035760253
0.00030343084
0.00025642261
0.00021578672
0.00018079781
0.00015079282
0.00012516789
0.00010337539
8.4920997e-05
6.9360799e-05
5.6298181e-05
4.5380835e-05
3.6297442e-05
2.8774848e-05
2.2573982e-05
1.748909e-05
1.3338376e-05
9.9778122e-06
7.2562871e-06
5.1161355e-06
3.3554105e-06
2.1500343e-06
9.8358142e-07
1.1729599e-06
1.4477559e-06
0.0073634247
0.0068659607
0.0063736641
0.0058765638
0.0053734293
0.0048760979
0.0043990237
0.0039508469
0.0035356512
0.0031547473
0.0028076762
0.0024929365
0.0022085021
0.0019521303
0.0017215441
0.0015145408
0.0013290488
0.0011631474
0.0010150698
0.00088319553
0.00076603906
0.00066223657
0.0005705331
0.00048977132
0.00041888203
0.00035687646
0.00030284022
0.00025592846
0.00021536204
0.00018042444
0.00015045896
0.00012486617
0.00010310143
8.46723e-05
6.9135979e-05
5.6096415e-05
4.5201487e-05
3.6139861e-05
2.863824e-05
2.2457376e-05
1.7391351e-05
1.3258239e-05
9.9139398e-06
7.2074622e-06
5.0807649e-06
3.3330315e-06
2.1373972e-06
9.7939361e-07
1.1202389e-06
1.2547283e-06
0.0064075297
0.0061488022
0.0058356788
0.0054672776
0.005060988
0.0046392872
0.0042207393
0.0038175113
0.0034365927
0.003081528
0.0027537424
0.002453327
0.0021795094
0.0019309941
0.0017062137
0.0015034944
0.0013211554
0.0011575647
0.0010111693
0.0008805082
0.00076421546
0.00066101734
0.0005697272
0.00048923965
0.00041852499
0.00035662435
0.00030264584
0.00025576126
0.00021520364
0.00018026507
0.00015029473
0.00012469696
0.00010292937
8.4500679e-05
6.8968393e-05
5.5936288e-05
4.5051741e-05
3.600277e-05
2.8515377e-05
2.234965e-05
1.7299092e-05
1.3181302e-05
9.851798e-06
7.1595402e-06
5.0457e-06
3.3110209e-06
2.1240397e-06
9.7622451e-07
1.062059e-06
1.0642689e-06
0.0054561198
0.0053804357
0.0052103347
0.0049625894
0.0046633243
0.0043339465
0.0039901367
0.003645079
0.0033086597
0.0029872327
0.0026845813
0.002402794
0.0021427266
0.001904339
0.0016870061
0.0014897551
0.0013114224
0.0011507561
0.0010064827
0.00087734737
0.00076213732
0.00065969358
0.00056891603
0.00048876485
0.00041826013
0.0003564808
0.00030256342
0.00025570102
0.00021514217
0.00018019
0.00015020133
0.00012458547
0.00010280303
8.4364244e-05
6.8827116e-05
5.5795238e-05
4.4915379e-05
3.5874729e-05
2.8398388e-05
2.2245556e-05
1.7208967e-05
1.310555e-05
9.790281e-06
7.1119593e-06
5.0107153e-06
3.2891798e-06
2.1098334e-06
9.7382696e-07
1.0006262e-06
8.8531779e-07
0.0044207279
0.0044516147
0.0043981806
0.0042658567
0.0040796503
0.0038551637
0.0036031137
0.0033352398
0.0030623796
0.0027925122
0.0025311588
0.0022821431
0.002047928
0.0018298606
0.0016284664
0.0014437072
0.0012751664
0.0011221813
0.00098393972
0.00085954643
0.00074806871
0.00064856557
0.00056010684
0.00048178548
0.00041272564
0.00035208791
0.0002990731
0.00025292488
0.00021293169
0.00017842814
0.00014879581
0.00012346354
0.00010190726
8.3649245e-05
6.8256948e-05
5.5341368e-05
4.4555083e-05
3.5589855e-05
2.8174378e-05
2.2070728e-05
1.7073867e-05
1.3002708e-05
9.7133247e-06
7.056742e-06
4.971667e-06
3.2667084e-06
2.0932508e-06
9.725161e-07
9.3681514e-07
7.2783945e-07
0.0034263177
0.0035154684
0.0035347572
0.0034846104
0.0033851299
0.0032477146
0.0030786604
0.0028869854
0.0026823708
0.0024724477
0.002262917
0.0020581741
0.0018614632
0.0016749725
0.0015000472
0.0013374075
0.0011873128
0.0010496878
0.00092422126
0.00081044184
0.00070777261
0.00061557047
0.00053315429
0.00045982532
0.00039488202
0.00033763108
0.00028739584
0.0002435228
0.00020538668
0.00017239447
0.00014398832
0.00011964776
9.8890929e-05
8.1275255e-05
6.6397313e-05
5.3892181e-05
4.3432263e-05
3.4725609e-05
2.7514207e-05
2.1571051e-05
1.6699786e-05
1.2726848e-05
9.5131832e-06
6.9165787e-06
4.8746815e-06
3.2089125e-06
2.0518826e-06
9.6311803e-07
8.5563632e-07
5.7824313e-07
0.0025712443
0.0026984561
0.0027685916
0.0027816953
0.0027502202
0.0026824837
0.0025823226
0.0024561346
0.0023118773
0.002156361
0.0019949989
0.0018322774
0.0016718111
0.0015163145
0.0013677179
0.0012273296
0.0010959667
0.00097406222
0.00086175558
0.00075896808
0.00066546095
0.0005808799
0.0005047894
0.00043669891
0.00037608311
0.00032239772
0.00027509202
0.00023361882
0.00019744256
0.00016604572
0.00013893395
0.00011563997
9.5726446e-05
7.8787863e-05
6.44516e-05
5.2378223e-05
4.2261148e-05
3.3825699e-05
2.682797e-05
2.1052537e-05
1.6312242e-05
1.2441523e-05
9.3063977e-06
6.7720045e-06
4.7743056e-06
3.1495502e-06
2.0073136e-06
9.5494887e-07
7.6753137e-07
4.3790954e-07
0.0018526337
0.0019993971
0.0021007813
0.0021578298
0.0021762389
0.0021615333
0.0021162098
0.0020444294
0.001952089
0.0018447929
0.0017273136
0.0016038367
0.001477967
0.0013526279
0.0012300846
0.0011120408
0.00099972879
0.00089398805
0.00079533928
0.00070405049
0.00062019219
0.0005436823
0.00047432243
0.00041182727
0.0003558483
0.00030599294
0.00026184024
0.00022295374
0.00018889205
0.00015921757
0.00013350351
0.00011133951
9.2336026e-05
7.6127514e-05
6.2374642e-05
5.0765581e-05
4.1016551e-05
3.2871633e-05
2.6102252e-05
2.0505573e-05
1.5904447e-05
1.2141965e-05
9.0897023e-06
6.6206325e-06
4.6690611e-06
3.0870657e-06
1.959232e-06
9.4653429e-07
6.7884993e-07
3.1791224e-07
0.0012747102
0.0014220853
0.0015366327
0.0016191786
0.0016703935
0.0016930814
0.0016887166
0.0016597197
0.001609972
0.0015436563
0.0014646579
0.0013765805
0.0012827102
0.0011858906
0.0010884762
0.00099236463
0.00089904295
0.00080963528
0.00072495314
0.00064554648
0.0005717501
0.00050372391
0.00044148751
0.00038494957
0.0003339326
0.00028819375
0.00024744242
0.00021135496
0.00017958722
0.00015178496
0.00012759253
0.00010666003
8.864901e-05
7.3236902e-05
6.0120349e-05
4.9017488e-05
3.9669366e-05
3.1840548e-05
2.5319243e-05
1.9916398e-05
1.5465866e-05
1.1820175e-05
8.8571244e-06
6.4579795e-06
4.5557954e-06
3.0189387e-06
1.9064299e-06
9.3627562e-07
5.9321261e-07
2.2405178e-07
0.00083208741
0.00096492371
0.0010774348
0.0011693271
0.001238069
0.0012840609
0.0013077031
0.0013100474
0.0012932463
0.0012600461
0.0012133072
0.0011558751
0.0010905029
0.001019725
0.00094577071
0.00087054235
0.00079562221
0.00072228893
0.00065154284
0.00058413791
0.0005206151
0.0004613342
0.0004065031
0.00035620427
0.00031041815
0.00026904378
0.00023191671
0.00019882462
0.00016952079
0.00014373572
0.00012118696
0.00010158745
8.4652349e-05
7.0104552e-05
5.7679013e-05
4.7125965e-05
3.821319e-05
3.0727402e-05
2.4475026e-05
1.9281996e-05
1.4994188e-05
1.1474357e-05
8.6072752e-06
6.2828749e-06
4.4336552e-06
2.9441969e-06
1.8487046e-06
9.2302527e-07
5.1358125e-07
1.5832358e-07
0.00051041128
0.00061944283
0.00071896379
0.00080753104
0.00088105362
0.00093819824
0.00097831813
0.0010013612
0.0010081064
0.0010000075
0.00097888556
0.00094675177
0.00090570183
0.00085780152
0.00080498644
0.0007490033
0.00069138358
0.00063343379
0.00057623752
0.00052066758
0.00046740409
0.00041695515
0.00036967824
0.00032580126
0.00028544241
0.00024862872
0.0002153128
0.00018538811
0.00015870244
0.00013506992
0.0001142815
9.6113943e-05
8.0337504e-05
6.6722283e-05
5.5043376e-05
4.5084918e-05
3.6643119e-05
2.952838e-05
2.3566717e-05
1.8600228e-05
1.4487843e-05
1.1103346e-05
8.3392863e-06
6.0945835e-06
4.3021407e-06
2.8621645e-06
1.7861766e-06
9.0574766e-07
4.422068e-07
1.1910471e-07
0.00029113871
0.00037245812
0.00045248972
0.00052907184
0.00059777266
0.00065630289
0.00070320764
0.00073759818
0.00075923776
0.00076852666
0.00076634004
0.00075387327
0.00073253157
0.00070382829
0.0006692909
0.00063038869
0.00058848269
0.00054479504
0.00050039251
0.00045618114
0.00041290912
0.00037117537
0.00033144145
0.00029404543
0.00025921659
0.00022709018
0.00019772174
0.00017110064
0.0001471627
0.00012580174
0.00010687997
9.0237219e-05
7.5698985e-05
6.3083315e-05
5.2206556e-05
4.2888029e-05
3.4953719e-05
2.8239033e-05
2.2590805e-05
1.7868408e-05
1.3944828e-05
1.0705663e-05
8.0520863e-06
5.8922822e-06
4.1607386e-06
2.7722748e-06
1.7191022e-06
8.8363478e-07
3.8035412e-07
1.0154206e-07
0.0001548566
0.00020844867
0.00026630513
0.00032602737
0.00038357025
0.000436346
0.00048246043
0.00052049417
0.00054953458
0.00056920986
0.00057962285
0.00058124764
0.00057483882
0.00056134847
0.00054184516
0.00051744331
0.00048924671
0.00045830459
0.00042558125
0.00039193735
0.00035812008
0.00032476022
0.00029237438
0.00026137097
0.00023205866
0.00020465622
0.00017930325
0.00015607102
0.00013497326
0.00011597639
9.9009227e-05
8.3971819e-05
7.0743404e-05
5.9189439e-05
4.9167646e-05
4.0533096e-05
3.3142368e-05
2.6856819e-05
2.154509e-05
1.7084769e-05
1.3363804e-05
1.0280341e-05
7.7450172e-06
5.6755311e-06
4.009263e-06
2.6743666e-06
1.6479949e-06
8.5637456e-07
3.2838936e-07
9.8769239e-08
8.3229389e-05
0.00011155407
0.00014738806
0.00018845254
0.0002314266
0.00027387021
0.00031381184
0.00034960967
0.00037998402
0.00040407237
0.00042142077
0.00043193186
0.00043580586
0.00043348169
0.00042557596
0.00041282256
0.00039601907
0.00037598152
0.00035350707
0.00032934628
0.00030418405
0.00027862751
0.00025319974
0.00022833805
0.0002043959
0.00018164743
0.00016029375
0.00014047044
0.0001222556
0.00010567821
9.0726409e-05
7.735537e-05
6.5494727e-05
5.5055313e-05
4.5935169e-05
3.8024757e-05
3.1211367e-05
2.5382733e-05
2.0429908e-05
1.6249379e-05
1.2744781e-05
9.8274371e-06
7.4182152e-06
5.4445543e-06
3.8480538e-06
2.5688258e-06
1.5736442e-06
8.2423816e-07
2.8599295e-07
1.0357424e-07
6.013012e-05
6.6958153e-05
8.2758319e-05
0.00010557267
0.00013289113
0.00016266243
0.00019310342
0.00022260625
0.00024978254
0.00027353061
0.00029305959
0.00030787667
0.00031776013
0.00032272648
0.00032299156
0.00031892702
0.00031101629
0.000299814
0.00028590997
0.00026989847
0.00025235378
0.00023381205
0.00021475855
0.00019561966
0.00017675886
0.00015847591
0.00014100867
0.0001245367
0.00010918629
9.5036259e-05
8.21243e-05
7.0453464e-05
5.9998527e-05
5.0712056e-05
4.253002e-05
3.5376831e-05
2.9169758e-05
2.3822671e-05
1.9249143e-05
1.5364869e-05
1.2089633e-05
9.348381e-06
7.0728456e-06
5.2003888e-06
3.6780674e-06
2.4566265e-06
1.497087e-06
7.8805433e-07
2.5240689e-07
1.0996942e-07
7.2091808e-05
6.1641652e-05
6.0379637e-05
6.673984e-05
7.8968614e-05
9.5488987e-05
0.00011485214
0.00013565692
0.000156597
0.00017653249
0.00019453023
0.0002098755
0.00022207025
0.00023082325
0.00023603219
0.00023775835
0.00023619665
0.00023164427
0.0002244703
0.00021508765
0.00020392807
0.00019142134
0.00017797877
0.00016398089
0.00014976878
0.00013563884
0.0001218403
0.00010857514
9.5999757e-05
8.4228074e-05
7.3335561e-05
6.3363904e-05
5.4325959e-05
4.6210775e-05
3.8988469e-05
3.2614795e-05
2.7035293e-05
2.2188956e-05
1.8011364e-05
1.4437258e-05
1.1402664e-05
8.8463475e-06
6.7113273e-06
4.944994e-06
3.5009103e-06
2.3392782e-06
1.4195181e-06
7.4904051e-07
2.2658072e-07
1.1414278e-07
0.00010829478
8.4668424e-05
6.9662815e-05
6.2089692e-05
6.0829992e-05
6.4767628e-05
7.2833072e-05
8.3918469e-05
9.691709e-05
0.00011079102
0.00012461578
0.00013760383
0.00014911823
0.00015867966
0.00016596542
0.00017080038
0.00017314151
0.00017305822
0.00017071063
0.00016632726
0.00016018355
0.00015258197
0.00014383467
0.00013424917
0.00012411696
0.00011370502
0.00010324998
9.2954788e-05
8.2987309e-05
7.3480663e-05
6.4534862e-05
5.621943e-05
4.8576684e-05
4.1625426e-05
3.5364792e-05
2.9778073e-05
2.4836359e-05
2.0501888e-05
1.673103e-05
1.3476844e-05
1.0691245e-05
8.3266767e-06
6.3375893e-06
4.6813742e-06
3.3188744e-06
2.2187602e-06
1.3422227e-06
7.0860806e-07
2.0725766e-07
1.1457334e-07
0.00016030895
0.00012717401
0.00010166733
8.2921028e-05
7.0307207e-05
6.3105017e-05
6.0601853e-05
6.2000743e-05
6.6446562e-05
7.3083686e-05
8.1097028e-05
8.9737892e-05
9.834424e-05
0.00010635707
0.00011333073
0.00011893621
0.00012295785
0.00012528508
0.00012590027
0.0001248642
0.00012230008
0.0001183775
0.00011329693
0.00010727571
0.00010053588
9.3294101e-05
8.5753788e-05
7.8099244e-05
7.0491859e-05
6.3067984e-05
5.5938303e-05
4.9188412e-05
4.2880321e-05
3.7054636e-05
3.173319e-05
2.6921892e-05
2.2613644e-05
1.8791168e-05
1.542965e-05
1.249911e-05
9.9664793e-06
7.797339e-06
5.9573629e-06
4.4137237e-06
3.1349817e-06
2.097452e-06
1.2665247e-06
6.6816514e-07
1.9302754e-07
1.1144304e-07
0.00022173019
0.00018218107
0.00014909468
0.00012185383
0.00010018404
8.3674623e-05
7.1912091e-05
6.4382943e-05
6.0486297e-05
5.9578984e-05
6.1008765e-05
6.4136737e-05
6.835758e-05
7.3118904e-05
7.7937099e-05
8.2408023e-05
8.6212441e-05
8.9116742e-05
9.0969566e-05
9.1695044e-05
9.128349e-05
8.9780465e-05
8.7275083e-05
8.3888284e-05
7.9761746e-05
7.5047896e-05
6.9901267e-05
6.4471437e-05
5.8897525e-05
5.3304269e-05
4.7799509e-05
4.2472931e-05
3.7395879e-05
3.2622015e-05
2.8188623e-05
2.4118362e-05
2.0421291e-05
1.7097006e-05
1.4136775e-05
1.152556e-05
9.2438708e-06
7.2694277e-06
5.5785235e-06
4.1476334e-06
2.953093e-06
1.9781378e-06
1.1938202e-06
6.290171e-07
1.8246085e-07
1.0577479e-07
0.00028780038
0.00024433523
0.00020615574
0.00017283057
0.00014432102
0.00012044239
0.00010101062
8.5745381e-05
7.4271766e-05
6.6153256e-05
6.0915958e-05
5.8064917e-05
5.7100528e-05
5.7536328e-05
5.8915651e-05
6.0825292e-05
6.2905642e-05
6.485731e-05
6.6444257e-05
6.7493632e-05
6.7892701e-05
6.7583427e-05
6.6555369e-05
6.4837513e-05
6.2489671e-05
5.9593959e-05
5.6246804e-05
5.255177e-05
4.8613442e-05
4.4532446e-05
4.0401663e-05
3.6303567e-05
3.2308603e-05
2.847446e-05
2.484611e-05
2.1456425e-05
1.8327234e-05
1.5470655e-05
1.2890596e-05
1.0584297e-05
8.54384e-06
6.757589e-06
5.2114186e-06
3.8903163e-06
2.7780517e-06
1.8640676e-06
1.1256664e-06
5.9235357e-07
1.7431066e-07
9.8717253e-08
0.00035506101
0.00030962325
0.00026837542
0.00023101931
0.00019765984
0.00016826555
0.00014281483
0.00012120372
0.00010324018
8.8667074e-05
7.7178188e-05
6.8428173e-05
6.204365e-05
5.7637031e-05
5.4820924e-05
5.3221366e-05
5.2489261e-05
5.2309735e-05
5.2409112e-05
5.2559318e-05
5.2579693e-05
5.2336426e-05
5.1739952e-05
5.0740734e-05
4.9323891e-05
4.7503127e-05
4.531441e-05
4.2809777e-05
4.0051543e-05
3.7107172e-05
3.4044917e-05
3.093033e-05
2.7823629e-05
2.4777895e-05
2.1838011e-05
1.9040243e-05
1.6412344e-05
1.3974058e-05
1.1737907e-05
9.7101711e-06
7.8919443e-06
6.2802594e-06
4.8690882e-06
3.6507908e-06
2.6158305e-06
1.7590652e-06
1.0639182e-06
5.5932336e-07
1.6773511e-07
9.1188621e-08
0.00042105842
0.00037510777
0.00033237817
0.00029266515
0.00025614995
0.00022289701
0.00019299026
0.00016644893
0.0001432176
0.00012318172
0.00010617727
9.1995282e-05
8.0387818e-05
7.1077128e-05
6.3766372e-05
5.8150388e-05
5.3926032e-05
5.0801713e-05
4.8505754e-05
4.6793133e-05
4.5450382e-05
4.4298548e-05
4.3194271e-05
4.2029156e-05
4.0727695e-05
3.9244035e-05
3.7557957e-05
3.5670388e-05
3.3598765e-05
3.137252e-05
2.9028898e-05
2.6609262e-05
2.4155986e-05
2.1709978e-05
1.9308838e-05
1.6985603e-05
1.4768025e-05
1.2678301e-05
1.0733158e-05
8.9442288e-06
7.3186041e-06
5.8595577e-06
4.5672507e-06
3.4399177e-06
2.4735937e-06
1.6676087e-06
1.0108395e-06
5.3113153e-07
1.6242006e-07
8.3818022e-08
0.00048410385
0.00043869548
0.00039568147
0.00035492335
0.00031663264
0.00028092752
0.00024795318
0.00021780747
0.00019052928
0.00016610884
0.00014449303
0.0001255859
0.00010925065
9.5314502e-05
8.3575569e-05
7.3810328e-05
6.5781586e-05
5.9246538e-05
5.3964635e-05
4.970477e-05
4.6251471e-05
4.3409822e-05
4.1008999e-05
3.8904355e-05
3.697813e-05
3.5138907e-05
3.3320008e-05
3.1477075e-05
2.9585082e-05
2.7635036e-05
2.5630577e-05
2.3584687e-05
2.151665e-05
1.9449382e-05
1.7407183e-05
1.5413961e-05
1.3491898e-05
1.1660553e-05
9.9363306e-06
8.3322813e-06
6.8581542e-06
5.5206807e-06
4.3239371e-06
3.2701977e-06
2.3596062e-06
1.5948247e-06
9.6914402e-07
5.0911492e-07
1.5855658e-07
7.70141e-08
0.00054308275
0.00049894326
0.00045651117
0.00041569532
0.00037670813
0.00033969247
0.00030482267
0.00027224082
0.00024204512
0.00021429679
0.00018902259
0.00016621298
0.00014582125
0.00012776519
0.00011193057
9.8175444e-05
8.6335392e-05
7.6229281e-05
6.7665549e-05
6.0448501e-05
5.4384356e-05
4.9286708e-05
4.4981204e-05
4.1309252e-05
3.8130665e-05
3.532522e-05
3.2793182e-05
3.0454899e-05
2.8249616e-05
2.6133692e-05
2.4078399e-05
2.2067503e-05
2.0094764e-05
1.8161528e-05
1.62745e-05
1.4443787e-05
1.2681248e-05
1.0999187e-05
9.4093674e-06
7.9223373e-06
6.547036e-06
5.2906569e-06
4.1586549e-06
3.1552372e-06
2.2829125e-06
1.5463321e-06
9.4191811e-07
4.9475066e-07
1.5669066e-07
7.1033302e-08
0.00059730556
0.00055490017
0.00051364309
0.00047347844
0.00043460222
0.00039716322
0.00036134319
0.00032730372
0.00029517557
0.00026506343
0.00023704685
0.00021117721
0.00018747527
0.00016593069
0.00014650295
0.00012912314
0.00011369663
0.00010010653
8.8217903e-05
7.7882499e-05
6.8943703e-05
6.1241481e-05
5.4617102e-05
4.8917383e-05
4.3998325e-05
3.9727981e-05
3.5988521e-05
3.2677459e-05
2.9708101e-05
2.7009285e-05
2.4524541e-05
2.2210794e-05
2.0036757e-05
1.7981148e-05
1.6030854e-05
1.4179151e-05
1.2424054e-05
1.0766862e-05
9.2109324e-06
7.7607015e-06
6.4209474e-06
5.1963091e-06
4.0909687e-06
3.1087938e-06
2.2527248e-06
1.5278866e-06
9.3240535e-07
4.8958103e-07
1.5752665e-07
6.6020405e-08
0.00064639008
0.00060597951
0.00056627006
0.00052723352
0.00048904066
0.00045183496
0.00041579202
0.00038107633
0.00034783215
0.00031618686
0.00028625109
0.00025811536
0.00023184698
0.00020748831
0.00018505607
0.00016454134
0.00014591022
0.00012910529
0.00011404786
0.00010064096
8.8772741e-05
7.8320299e-05
6.9153675e-05
6.1139791e-05
5.4146222e-05
4.804457e-05
4.2713366e-05
3.8040363e-05
3.3924206e-05
3.0275462e-05
2.7017036e-05
2.408405e-05
2.1423276e-05
1.8992205e-05
1.6757882e-05
1.4695596e-05
1.2787521e-05
1.1021397e-05
9.3892957e-06
7.8865362e-06
6.5107711e-06
5.2612741e-06
4.1383759e-06
3.1433139e-06
2.2774563e-06
1.5447857e-06
9.4364033e-07
4.9504899e-07
1.6174651e-07
6.2037111e-08
0.00069017012
0.00065185705
0.00061389283
0.0005762724
0.00053913777
0.00050262131
0.00046688479
0.00043208545
0.00039836842
0.00036586917
0.00033471327
0.00030501328
0.00027686553
0.00025034789
0.00022551821
0.00020241317
0.00018104764
0.0001614146
0.00014348588
0.00012721342
0.00011253124
9.9357844e-05
8.7599131e-05
7.7151478e-05
6.7905022e-05
5.9746881e-05
5.2564222e-05
4.6247019e-05
4.0690428e-05
3.579669e-05
3.1476534e-05
2.7650081e-05
2.4247269e-05
2.1207848e-05
1.8481021e-05
1.6024803e-05
1.3805186e-05
1.1795181e-05
9.9738191e-06
8.3251708e-06
6.8374355e-06
5.5021517e-06
4.3135011e-06
3.2679576e-06
2.3633871e-06
1.6010213e-06
9.7793486e-07
5.1224997e-07
1.6986654e-07
5.9087258e-08
0.00072861744
0.00069238324
0.00065622433
0.00062015612
0.0005842918
0.00054875022
0.00051367593
0.00047921343
0.00044550112
0.00041267308
0.00038085876
0.00035018027
0.00032074948
0.00029266574
0.00026601397
0.00024086292
0.00021726381
0.00019524929
0.00017483296
0.00015600948
0.00013875512
0.000123029
0.00010877465
9.5922136e-05
8.4390465e-05
7.4090175e-05
6.4926089e-05
5.6799999e-05
4.9613243e-05
4.3269017e-05
3.7674396e-05
3.2741963e-05
2.8391046e-05
2.4548553e-05
2.1149416e-05
1.8136701e-05
1.5461413e-05
1.3082085e-05
1.0964188e-05
9.0794531e-06
7.4051425e-06
5.9233431e-06
4.6202789e-06
3.4858729e-06
2.5128019e-06
1.6980799e-06
1.0361604e-06
5.4157339e-07
1.8209957e-07
5.713193e-08
0.00076178956
0.00072752295
0.00069312207
0.00065862156
0.00062410743
0.00058968485
0.00055548054
0.00052162405
0.00048824318
0.00045546519
0.00042341644
0.00039222025
0.00036199447
0.00033284937
0.00030488572
0.00027819296
0.00025284737
0.00022891061
0.00020642851
0.0001854303
0.00016592822
0.0001479176
0.00013137748
0.00011627158
0.00010254975
9.0149802e-05
7.8999539e-05
6.9019054e-05
6.0123065e-05
5.2223253e-05
4.5230486e-05
3.9056852e-05
3.3617434e-05
2.8831776e-05
2.4625028e-05
2.0928746e-05
1.7681383e-05
1.4828487e-05
1.2322648e-05
1.0123254e-05
8.1961002e-06
6.5129154e-06
5.0508151e-06
3.7919118e-06
2.7224037e-06
1.8339146e-06
1.1171418e-06
5.8241015e-07
1.9827558e-07
5.6099729e-08
0.00078975245
0.00075726924
0.00072449369
0.00069147907
0.00065828681
0.00062500963
0.00059175755
0.00055864522
0.00052578855
0.00049330546
0.00046131549
0.00042993825
0.00039929136
0.00036948879
0.000340639
0.00031284325
0.00028619367
0.00026077162
0.00023664611
0.00021387253
0.00019249158
0.00017252865