/*--------------------------------*- C++ -*----------------------------------*\
  =========                 |
  \\      /  F ield         | OpenFOAM: The Open Source CFD Toolbox
   \\    /   O peration     | Website:  https://openfoam.org
    \\  /    A nd           | Version:  6
     \\/     M anipulation  |
\*---------------------------------------------------------------------------*/
FoamFile
{
    version     2.0;
    format      ascii;
    class       volVectorField;
    location    "230";
    object      U;
}
// * * * * * * * * * * * * * * * * * * * * * * * * * * * * * * * * * * * * * //

dimensions      [0 1 -1 0 0 0 0];

internalField   nonuniform List<vector> 
9200
(
(0.0010393462 0.0014199822 -5.9201839e-20)
(0.013676067 -0.0020583666 4.6042531e-20)
(0.038313166 -0.0058665678 -3.8501734e-20)
(0.072274436 -0.0097635047 -6.0257747e-20)
(0.11376474 -0.013490028 1.8826963e-20)
(0.16158089 -0.016605657 3.2743877e-20)
(0.21467148 -0.018817284 -1.2268007e-20)
(0.27206607 -0.019973889 9.2688606e-21)
(0.33285622 -0.020011221 1.6803425e-20)
(0.39616347 -0.018929049 1.4848071e-21)
(0.46111555 -0.016779812 -2.1456335e-20)
(0.52683686 -0.013657727 2.0670002e-20)
(0.59245067 -0.0096879926 -4.0422141e-20)
(0.6570913 -0.0050157694 -2.1133898e-20)
(0.71992471 0.00020557019 5.9046516e-21)
(0.78017501 0.0058241056 -2.513167e-20)
(0.83717058 0.011712825 2.5217112e-20)
(0.89046875 0.017918526 2.2243193e-20)
(0.9396707 0.024573427 -2.9929997e-22)
(0.98205185 0.028293398 -1.6691943e-21)
(0.0052521803 -0.0013462729 -1.7059352e-20)
(0.026962501 -0.0089890259 3.9747709e-20)
(0.061670115 -0.014809763 2.3576294e-20)
(0.10629489 -0.019172267 -1.1569757e-19)
(0.15873565 -0.022213994 -1.2727087e-20)
(0.21753351 -0.023720681 7.3297076e-20)
(0.28137295 -0.023595091 -3.5476398e-20)
(0.34900601 -0.021868959 -8.3905565e-21)
(0.41923919 -0.018645517 3.4287539e-20)
(0.49090943 -0.014080833 -4.3259576e-20)
(0.56287231 -0.0083759419 -3.0338479e-20)
(0.63400846 -0.0017665844 7.1921427e-20)
(0.70324329 0.0054884056 3.8294044e-20)
(0.7695758 0.013118644 -6.7976547e-20)
(0.83211244 0.020852095 1.4623688e-20)
(0.89010036 0.028419718 -3.6733393e-20)
(0.94296915 0.035569687 -1.3777195e-20)
(0.99043229 0.042140899 7.097476e-20)
(1.032356 0.047715322 2.9641942e-20)
(1.0669348 0.049139702 -8.3478252e-20)
(0.010858426 -0.0040424156 3.6773455e-20)
(0.043953413 -0.015431076 2.5047359e-21)
(0.090515434 -0.022552281 2.2341709e-20)
(0.14711139 -0.026497356 9.811682e-22)
(0.21134254 -0.027886295 -4.0773934e-20)
(0.28146767 -0.026795111 1.8576403e-20)
(0.3558704 -0.023382724 1.3420298e-20)
(0.43299006 -0.017921532 -5.0327701e-20)
(0.51132476 -0.010735646 5.7261855e-20)
(0.58942612 -0.002183875 1.4256687e-20)
(0.66590915 0.0073479111 -5.4300707e-20)
(0.73948034 0.017460269 -1.8237401e-20)
(0.80897597 0.027756568 9.0591601e-21)
(0.87340263 0.037859277 2.3444734e-20)
(0.93197361 0.047424048 -1.1362503e-20)
(0.98413366 0.056148977 2.7877721e-20)
(1.029574 0.063789177 -2.0188238e-20)
(1.0682645 0.070204395 -7.0123561e-20)
(1.1003321 0.07511938 -2.3796261e-20)
(1.1249112 0.076641239 4.8659741e-20)
(0.017957214 -0.0064221631 2.4508014e-20)
(0.064776994 -0.020694799 5.1039222e-20)
(0.12485228 -0.028060846 1.9881694e-20)
(0.19446965 -0.030464064 1.2990096e-20)
(0.27094931 -0.029094839 1.7275703e-20)
(0.35224879 -0.024388976 -4.772017e-20)
(0.43643138 -0.016825969 -2.5646855e-20)
(0.52162007 -0.006976667 0)
(0.60602894 0.0045670355 1.3920617e-20)
(0.68798706 0.017211735 -5.8523393e-21)
(0.76597516 0.030373925 -9.793494e-20)
(0.83867446 0.043499635 -1.5774816e-20)
(0.90501524 0.05608662 6.5103192e-20)
(0.96421569 0.067704138 4.8442671e-22)
(1.0158035 0.078007718 -1.5725563e-21)
(1.0596155 0.086746795 2.195749e-20)
(1.0957773 0.093772231 -5.2647204e-21)
(1.12468 0.099065337 -6.1029714e-20)
(1.1468647 0.10259708 -4.5851217e-20)
(1.1622957 0.10341386 6.9520496e-20)
(0.02657942 -0.0082056879 -3.91942e-21)
(0.089344019 -0.024033505 -5.1256309e-21)
(0.16430753 -0.030264987 5.6599407e-20)
(0.24758119 -0.029810017 1.8539324e-20)
(0.3362416 -0.024513025 -3.1955066e-20)
(0.42795125 -0.015239857 1.2163839e-20)
(0.52047261 -0.0028513599 2.6402861e-21)
(0.61166357 0.011737098 3.3609168e-20)
(0.69954711 0.027640145 5.6599502e-21)
(0.78236836 0.044028772 -1.3204739e-20)
(0.85865405 0.060147727 6.0154034e-20)
(0.9272691 0.075340474 -5.8009353e-20)
(0.98745675 0.089072864 -1.3216612e-19)
(1.0388531 0.10094902 -5.5773031e-21)
(1.0814725 0.11071709 8.3150764e-20)
(1.1156655 0.11826405 0)
(1.1420548 0.12360583 1.0118954e-20)
(1.1614668 0.12689056 -1.5459771e-20)
(1.1748179 0.12829871 -8.5994632e-21)
(1.1826673 0.12744916 2.0992241e-20)
(0.036666908 -0.0090895794 -5.4309122e-21)
(0.11731511 -0.024685356 4.3578745e-21)
(0.20811868 -0.028140177 -8.7629837e-21)
(0.30515702 -0.023414953 2.8472394e-20)
(0.40533539 -0.013075589 -2.9392663e-20)
(0.50607147 0.0015226177 -1.6927023e-20)
(0.60490489 0.019095143 3.7364231e-20)
(0.69954958 0.038365257 4.759545e-21)
(0.78800391 0.058167648 -2.4436056e-20)
(0.86863405 0.077483007 6.9867555e-20)
(0.94023972 0.095458646 5.2393876e-22)
(1.0020956 0.11143157 -8.0444312e-20)
(1.0539569 0.12494291 0)
(1.0960273 0.1357375 3.9542115e-20)
(1.1288922 0.14374843 5.5236002e-21)
(1.1534278 0.14906894 -7.7566397e-20)
(1.170699 0.15191914 -1.9586919e-20)
(1.1818623 0.15262369 -1.2467633e-20)
(1.1880592 0.15152607 -1.4709393e-20)
(1.190146 0.14858494 4.0420549e-20)
(0.048058868 -0.0087674049 -1.7277958e-20)
(0.1480831 -0.021931993 -2.2198281e-21)
(0.2551407 -0.020797833 3.0380503e-20)
(0.36546384 -0.010412791 3.7484307e-20)
(0.4759042 0.0059015901 -1.9944733e-20)
(0.58374266 0.026269309 -6.9163029e-20)
(0.68644185 0.048977211 -2.7995796e-20)
(0.78176203 0.072417791 7.8929207e-20)
(0.86790195 0.095212481 8.5778132e-21)
(0.94358915 0.11624962 -2.4873481e-20)
(1.0081258 0.13469827 1.3642212e-20)
(1.061387 0.15001556 -4.3194489e-21)
(1.1037693 0.16193659 0)
(1.1360975 0.17044428 2.7203481e-20)
(1.1595046 0.17572309 -7.932241e-20)
(1.175302 0.1781037 -3.1475527e-20)
(1.184857 0.17800813 8.1054571e-20)
(1.1894921 0.17590946 -4.2969837e-21)
(1.1904029 0.17225559 3.5561065e-21)
(1.188508 0.16719299 2.711158e-20)
(0.06048525 -0.0069573638 -3.2414614e-20)
(0.18077772 -0.01517038 -8.1624318e-20)
(0.30388929 -0.007583526 2.5797749e-21)
(0.42642556 0.0097033574 7.0161809e-20)
(0.54535149 0.032631555 6.2424374e-20)
(0.657981 0.058820044 -7.1574519e-20)
(0.76190882 0.086176509 -2.8275132e-22)
(0.85518291 0.11285231 8.5522544e-20)
(0.93645346 0.13737838 4.8828067e-20)
(1.0050415 0.1586937 -5.4218405e-20)
(1.0609356 0.17613563 -9.2334211e-20)
(1.1047242 0.18941354 -3.1589825e-21)
(1.1374759 0.19855944 4.2127865e-20)
(1.1605873 0.20385857 -6.6056275e-21)
(1.1756247 0.2057702 -1.2868786e-20)
(1.1841776 0.2048492 1.9690806e-20)
(1.1877427 0.20167898 4.3880614e-20)
(1.1876453 0.19682588 -4.3859428e-20)
(1.1849954 0.19077885 -1.02322e-19)
(1.180625 0.18377381 2.4566878e-20)
(0.073537215 -0.0034329734 -3.497975e-20)
(0.21422687 -0.0039890253 -1.7388611e-19)
(0.35251657 0.011839376 8.210324e-20)
(0.48562797 0.037018337 9.2767514e-20)
(0.61085379 0.066835552 5.7970566e-20)
(0.72576726 0.098481178 8.6107092e-21)
(0.82834802 0.12959696 -1.0624009e-19)
(0.91718997 0.15824269 0)
(0.99162743 0.18302814 -6.8748586e-20)
(1.0517521 0.20311207 -1.5202409e-20)
(1.0983384 0.21814861 5.4703463e-20)
(1.1327008 0.22821083 1.0973379e-20)
(1.1565109 0.2336926 -4.5613852e-20)
(1.1716067 0.23519947 -4.908136e-20)
(1.1798204 0.23344336 2.4287679e-20)
(1.182845 0.22915324 4.4822888e-20)
(1.1821488 0.22300986 -5.5600404e-20)
(1.178936 0.21560823 -1.0751121e-19)
(1.1741468 0.20742225 -3.1513626e-21)
(1.1684567 0.19871881 2.7046396e-20)
(0.086650446 0.001961386 -3.5448991e-21)
(0.24696019 0.011816634 8.791324e-20)
(0.39884739 0.03749231 -1.6479246e-20)
(0.54040465 0.071218382 -8.4309147e-20)
(0.66949902 0.10778893 4.516437e-20)
(0.78421952 0.14411543 4.9175452e-20)
(0.88318939 0.17775668 5.535678e-21)
(0.96577869 0.2068849 -9.9502486e-20)
(1.0321763 0.23038802 -2.5048779e-21)
(1.0833328 0.24781553 5.0503541e-20)
(1.120807 0.25926301 5.9854755e-21)
(1.1465558 0.2652362 -1.9717206e-20)
(1.1627107 0.26650533 -7.5704624e-20)
(1.1713765 0.26396622 -6.2554018e-21)
(1.1744762 0.2585243 4.3533351e-20)
(1.1736548 0.25101089 3.702201e-20)
(1.1702383 0.24213396 1.979344e-20)
(1.1652402 0.23245876 -5.2994838e-20)
(1.1594014 0.22240419 1.2957451e-20)
(1.1532251 0.212238 8.265909e-20)
(-0.0012932615 0.0014346597 -1.123445e-21)
(-0.0047459602 0.0031874147 2.0646968e-21)
(-0.010771359 0.004135904 8.79499e-22)
(-0.017754287 0.0045395358 -2.4411022e-21)
(-0.024740317 0.0045654164 -1.411482e-21)
(-0.031299592 0.0043260384 1.5460012e-21)
(-0.037161326 0.003903538 -6.8700797e-21)
(-0.04214744 0.0033577216 -5.9573038e-21)
(-0.046157774 0.0027313811 1.1171996e-20)
(-0.049146188 0.0020548305 -9.7427478e-21)
(-0.051100652 0.0013493004 -1.9833047e-22)
(-0.052030442 0.0006294219 3.6673436e-21)
(-0.051957736 -9.4889464e-05 -6.329559e-22)
(-0.05091188 -0.00081693034 2.2818742e-20)
(-0.048925777 -0.0015318446 3.0401114e-22)
(-0.046035341 -0.0022351739 -4.0882868e-20)
(-0.042281798 -0.0029222678 7.5385611e-21)
(-0.037703443 -0.0035910383 2.3864109e-20)
(-0.032308696 -0.0042399862 -4.3852372e-20)
(-0.026156967 -0.0048211128 -2.7739203e-20)
(-0.0016521999 0.0041808661 -5.3716023e-21)
(-0.0053974809 0.0092681379 1.0865439e-20)
(-0.011218509 0.012007443 -1.0191542e-20)
(-0.017658025 0.013153764 3.9229732e-21)
(-0.023856432 0.013195413 4.8121429e-21)
(-0.029433316 0.012462724 7.1324172e-22)
(-0.034152319 0.011197013 -2.2509487e-20)
(-0.037860376 0.0095738966 -2.0370238e-21)
(-0.040474297 0.007718987 2.0163538e-20)
(-0.04195892 0.0057212303 -5.0473595e-21)
(-0.042308949 0.0036428645 -2.1762587e-20)
(-0.041537336 0.0015267129 4.8973165e-21)
(-0.039667712 -0.00059830514 2.2635419e-20)
(-0.036729081 -0.0027127605 1.030839e-20)
(-0.032752035 -0.0048026885 2.1854283e-20)
(-0.027769172 -0.0068555076 -1.9770727e-20)
(-0.021824798 -0.0088582186 -2.1672942e-20)
(-0.014966275 -0.010804224 2.1184615e-20)
(-0.0071290238 -0.012679 2.6810363e-20)
(0.001874287 -0.014317222 1.5854765e-20)
(-0.0023034291 0.0065602324 -4.3568686e-21)
(-0.0065392236 0.014480195 -5.6387545e-21)
(-0.011892131 0.018710542 3.0723945e-22)
(-0.017211098 0.020428179 1.0959881e-21)
(-0.021819141 0.020400323 6.6918396e-21)
(-0.02543104 0.019151665 1.0665167e-20)
(-0.027877231 0.017066287 -3.7227633e-21)
(-0.029053268 0.014423782 -1.8896162e-20)
(-0.028909036 0.011424352 6.5413165e-21)
(-0.02743105 0.0082099049 1.2862569e-20)
(-0.024627714 0.0048797761 5.8340843e-21)
(-0.02052011 0.0015022389 1.8159104e-20)
(-0.015135988 -0.0018768628 1.7295913e-21)
(-0.0085054023 -0.005227247 -3.3864525e-20)
(-0.0006568978 -0.008527609 1.2020169e-21)
(0.0083810103 -0.011759108 -2.2139209e-20)
(0.018556858 -0.014904095 -2.44663e-20)
(0.029802169 -0.01795375 4.5819706e-20)
(0.04230495 -0.020855114 2.5349345e-20)
(0.056738554 -0.023247763 1.2239265e-22)
(-0.0031290275 0.0083689697 -5.2833067e-21)
(-0.0078963986 0.018336512 -8.4815259e-21)
(-0.012438985 0.023587808 4.3593045e-21)
(-0.016026534 0.025609657 4.1463447e-21)
(-0.018235023 0.025382744 2.0105706e-21)
(-0.018912651 0.023589321 7.3209949e-21)
(-0.017984717 0.020730272 9.312477e-21)
(-0.01541671 0.017170377 -1.3511354e-21)
(-0.011207049 0.013171314 -1.1481945e-20)
(-0.0053752363 0.0089189316 -2.9071875e-20)
(0.002048107 0.0045434375 6.1892231e-23)
(0.011026502 0.00013431162 4.0697817e-20)
(0.021522216 -0.00424895 -1.838317e-20)
(0.033497839 -0.0085675835 -1.2296086e-20)
(0.046920497 -0.012795544 5.5348956e-22)
(0.061760077 -0.016911853 3.230264e-20)
(0.077952991 -0.020901667 -1.4829542e-20)
(0.095392238 -0.024763372 -5.3339179e-20)
(0.11439842 -0.028379714 4.5765004e-20)
(0.13634535 -0.03107309 3.3013165e-20)
(-0.0039704095 0.0094657319 -6.8788993e-22)
(-0.0090916577 0.020487791 -1.2534739e-20)
(-0.012364471 0.026159086 -3.4144532e-20)
(-0.01355254 0.028143337 -5.7241615e-21)
(-0.01253324 0.027555006 -3.6222737e-21)
(-0.0093167251 0.025188063 6.3051031e-21)
(-0.0039456462 0.021627411 -4.6461957e-21)
(0.0035261258 0.017298959 -8.8070267e-21)
(0.013036817 0.012508752 2.1899708e-20)
(0.024521237 0.0074744431 5.0567072e-21)
(0.037915532 0.0023489049 -2.5290291e-20)
(0.053157437 -0.0027627829 1.1078278e-20)
(0.070186857 -0.007790873 0)
(0.088946569 -0.012691301 1.2089574e-20)
(0.10938542 -0.017436917 -9.7016167e-21)
(0.1314574 -0.022009893 -1.4337118e-20)
(0.15507405 -0.026408642 -1.5738959e-21)
(0.18006758 -0.030659416 -2.2181546e-21)
(0.20685339 -0.034576529 4.6147059e-20)
(0.23766356 -0.037019863 -1.0470124e-20)
(-0.0046450977 0.009780862 -7.5356674e-21)
(-0.0096772506 0.020747879 2.4516398e-20)
(-0.01106438 0.026160976 -1.0499346e-20)
(-0.0090968328 0.027724444 -2.7469279e-20)
(-0.0039797216 0.026601694 -2.7548144e-20)
(0.0040961814 0.023648408 -1.4921568e-20)
(0.014954147 0.019496457 -6.9059624e-22)
(0.028436232 0.014604706 5.5499782e-21)
(0.044403142 0.0093034473 1.9615878e-20)
(0.06273049 0.0038284166 7.3530848e-21)
(0.083304308 -0.0016547536 -7.1862207e-21)
(0.10601896 -0.0070322367 -2.0102311e-21)
(0.13077356 -0.012229095 -3.8191707e-20)
(0.15746942 -0.01719975 -1.2693644e-20)
(0.18601198 -0.021919731 1.8750604e-20)
(0.21631175 -0.026379714 -2.1021672e-20)
(0.24823221 -0.030602219 -8.9730572e-21)
(0.28151865 -0.034670602 3.0440464e-20)
(0.31660701 -0.038364814 5.0472063e-20)
(0.35665013 -0.039964093 3.3559656e-21)
(-0.0049617683 0.0093139985 1.6783303e-20)
(-0.0091662691 0.019097709 1.4467937e-20)
(-0.007859365 0.023563366 5.1145483e-20)
(-0.0018585401 0.024328943 2.338798e-20)
(0.0082957216 0.022523783 1.8251773e-22)
(0.022221938 0.019014385 -3.9388452e-20)
(0.039597439 0.014440936 -2.4313857e-20)
(0.060147899 0.0092663604 1.0465817e-20)
(0.083639109 0.0038232294 1.4401585e-20)
(0.10986668 -0.0016512975 -1.3113711e-20)
(0.13864562 -0.0069910074 -4.4038711e-20)
(0.16980169 -0.012082844 2.9618496e-20)
(0.20316403 -0.016854155 2.002055e-20)
(0.23855944 -0.021263991 -2.7551154e-20)
(0.27581228 -0.025296398 1.1650134e-20)
(0.31474809 -0.028957162 2.4197611e-20)
(0.35514543 -0.032303046 8.0723936e-21)
(0.39663385 -0.03550667 -1.1764209e-20)
(0.43957699 -0.038392634 -1.4190296e-20)
(0.48798507 -0.038634393 5.8727587e-21)
(-0.0047307762 0.0081236731 1.1093845e-20)
(-0.0070586005 0.015671176 -2.3352717e-20)
(-0.0020293664 0.018562032 8.6200542e-21)
(0.009032519 0.018216225 3.3587964e-20)
(0.025256359 0.01565115 5.2124334e-20)
(0.046066335 0.011695604 2.0276508e-20)
(0.070984519 0.0069609535 -5.8639349e-21)
(0.099601942 0.0018829529 -1.2286283e-20)
(0.13156893 -0.003227196 -6.2057461e-21)
(0.16657566 -0.0081496548 3.4240832e-20)
(0.20433423 -0.012733317 -4.5104377e-21)
(0.24456483 -0.016879183 -1.6643299e-20)
(0.28698468 -0.020528681 -1.9693571e-20)
(0.33129996 -0.023656406 -4.7443734e-20)
(0.37720456 -0.026265525 2.3238701e-20)
(0.42438767 -0.028387852 -1.4095982e-20)
(0.47249971 -0.030127609 2.5993396e-20)
(0.52103615 -0.031783177 2.1040822e-20)
(0.57021392 -0.033350664 -8.5570382e-20)
(0.62470913 -0.032058824 -1.0807205e-22)
(-0.003771052 0.0063146394 2.1925054e-20)
(-0.0028657666 0.010735096 -2.6165528e-20)
(0.0071421039 0.011564137 -4.5013292e-20)
(0.024450231 0.0099249905 -2.7253779e-20)
(0.047870848 0.0066523071 -2.0439867e-21)
(0.076628698 0.0024906188 1.3050094e-20)
(0.11007672 -0.0020153931 -2.8337698e-21)
(0.14765205 -0.0064879012 1.8118536e-20)
(0.18886095 -0.0106635 8.8685611e-21)
(0.23325194 -0.014362417 -1.1380171e-20)
(0.28039148 -0.017468944 8.8779119e-21)
(0.32984602 -0.019916799 -2.3903265e-20)
(0.38116878 -0.021678689 8.0504768e-21)
(0.43389082 -0.022759865 1.6756389e-20)
(0.48751933 -0.023194289 -2.6395133e-21)
(0.54154713 -0.023046878 1.6618981e-21)
(0.59543543 -0.02246943 -3.1957682e-22)
(0.64851781 -0.021870088 1.9590419e-20)
(0.70082237 -0.021445044 4.0434004e-21)
(0.75745147 -0.018499061 -5.7334579e-22)
(-0.0019110145 0.0040273482 2.3692111e-20)
(0.0038694294 0.0046765208 5.7159955e-20)
(0.020315309 0.0031879655 -4.9244221e-20)
(0.045178282 0.00029442775 -9.9454141e-21)
(0.076965148 -0.0034241496 2.0256344e-20)
(0.11469622 -0.0073535831 2.1433716e-21)
(0.15753882 -0.011054953 -2.981516e-20)
(0.2047483 -0.014244135 6.9848102e-21)
(0.25564948 -0.016737923 7.1097868e-21)
(0.30960472 -0.01842695 -2.6254075e-20)
(0.36598646 -0.01926009 1.2927324e-21)
(0.42415957 -0.019231858 -3.7174109e-20)
(0.48347099 -0.018372192 -3.634101e-20)
(0.54324563 -0.016738264 6.568347e-20)
(0.6027881 -0.014407289 5.5627475e-21)
(0.66138882 -0.011475884 -1.5188792e-20)
(0.71830782 -0.0081020293 1.9363964e-20)
(0.77269899 -0.0045928484 -9.1888132e-22)
(0.82408833 -0.0009680295 2.0364576e-20)
(0.87621964 0.0043280888 -1.9554147e-20)
(-0.018836425 -0.0050997019 5.8352034e-20)
(-0.010224665 -0.005634925 1.5783663e-20)
(-0.00022120853 -0.0060688776 -3.5139548e-20)
(0.010823208 -0.0063341069 1.6790229e-20)
(0.022642444 -0.006512044 0)
(0.035177858 -0.0066300867 0)
(0.048369629 -0.0066909698 -2.2974939e-20)
(0.062138038 -0.0067025359 -1.6502864e-20)
(0.076412674 -0.0066741702 1.9122585e-20)
(0.091134029 -0.0066126614 1.8174026e-20)
(0.10624713 -0.0065232013 1.0524251e-21)
(0.12170017 -0.0064103534 -1.0317632e-20)
(0.13744484 -0.0062780764 8.326875e-21)
(0.15343594 -0.0061297175 1.8233709e-20)
(0.1696307 -0.0059681401 -5.227414e-21)
(0.18598847 -0.0057958295 -1.0174931e-20)
(0.2024705 -0.0056149569 -4.3195856e-21)
(0.21903975 -0.0054274312 -4.4257371e-21)
(0.23566081 -0.0052349447 7.3667168e-22)
(0.2522998 -0.0050390075 1.2286034e-21)
(0.26892439 -0.0048409748 2.5666296e-21)
(0.28550379 -0.0046420662 6.653943e-21)
(0.30200882 -0.004443381 2.4894452e-22)
(0.31841194 -0.0042459086 -3.4514683e-21)
(0.3346873 -0.0040505366 1.5558767e-22)
(0.35081084 -0.0038580566 -5.7709751e-22)
(0.36676029 -0.0036691685 1.2434356e-21)
(0.38251526 -0.0034844847 1.0522432e-21)
(0.39805722 -0.0033045336 -1.2987921e-21)
(0.41336954 -0.0031297636 -1.2218739e-22)
(0.4284375 -0.0029605463 3.5750327e-23)
(0.44324825 -0.0027971821 -3.5187554e-22)
(0.45779079 -0.0026399037 -4.0565354e-22)
(0.47205592 -0.0024888826 5.5412731e-23)
(0.48603624 -0.0023442341 -1.3809015e-22)
(0.49972606 -0.0022060235 -2.2343134e-22)
(0.51312134 -0.002074273 2.5571881e-22)
(0.52621975 -0.0019489684 2.9501916e-22)
(0.53902049 -0.0018300678 -8.2710063e-24)
(0.55152467 -0.0017175057 -1.5517331e-22)
(0.56373425 -0.0016112214 3.0406581e-23)
(0.57565582 -0.0015111143 -4.014465e-23)
(0.58728956 -0.0014172556 9.2203202e-23)
(0.59866448 -0.0013293089 2.1977152e-23)
(0.60973495 -0.0012485576 -1.1394447e-22)
(0.62069298 -0.0011717926 -6.7611892e-24)
(0.63106095 -0.0011112438 -7.240246e-26)
(0.64234945 -0.0010339472 -3.561098e-24)
(0.65042739 -0.0010508046 2.945373e-23)
(0.66700824 -0.00087555853 3.605064e-22)
(0.010445865 -0.015017608 -1.2746814e-20)
(0.018179693 -0.01664101 -6.3302322e-20)
(0.02777921 -0.017915412 -3.0541935e-20)
(0.038385138 -0.018672069 3.8476005e-20)
(0.049620979 -0.019183586 1.4662609e-20)
(0.06150662 -0.01952943 -1.8204925e-20)
(0.07401281 -0.019709863 4.6721995e-21)
(0.087062657 -0.01974649 2.5447184e-20)
(0.10059313 -0.019667279 9.1993765e-23)
(0.11455399 -0.019491698 -7.659123e-21)
(0.12889715 -0.019234357 -1.3021014e-20)
(0.14357599 -0.018908309 -8.5245281e-21)
(0.15854661 -0.01852497 1.7772331e-20)
(0.17376752 -0.018093997 8.9295418e-21)
(0.18919895 -0.017623676 -1.6522434e-20)
(0.20480272 -0.017121228 -6.0390569e-21)
(0.22054209 -0.016592993 3.2145042e-21)
(0.2363817 -0.016044566 8.3716307e-21)
(0.25228747 -0.015480927 6.9832254e-21)
(0.26822667 -0.014906537 -6.972714e-21)
(0.28416786 -0.014325409 -3.168545e-21)
(0.30008103 -0.01374117 1.3605332e-21)
(0.31593757 -0.013157094 3.8682747e-22)
(0.33171045 -0.012576136 1.2113948e-21)
(0.3473742 -0.012000954 1.8368341e-22)
(0.36290502 -0.011433919 -3.2661604e-22)
(0.37828086 -0.010877136 -7.2434827e-22)
(0.39348142 -0.010332449 9.7156509e-22)
(0.40848822 -0.0098014501 8.2482888e-22)
(0.4232846 -0.0092854968 -1.5147307e-22)
(0.43785575 -0.0087857173 5.5306022e-22)
(0.45218865 -0.008303026 -2.3880903e-22)
(0.46627211 -0.0078381375 -3.7069843e-22)
(0.48009667 -0.0073915822 -6.0999025e-22)
(0.49365462 -0.006963723 4.4171701e-22)
(0.50693993 -0.0065547738 -1.5476721e-23)
(0.5199482 -0.0061648192 1.6124683e-22)
(0.53267667 -0.0057938345 -4.4174684e-22)
(0.54512411 -0.0054417127 3.7189414e-22)
(0.55729118 -0.0051082755 6.7175145e-23)
(0.56917937 -0.0047933582 -1.0285395e-22)
(0.58079477 -0.0044966769 1.7613635e-22)
(0.5921371 -0.0042184605 2.3339562e-22)
(0.60323465 -0.0039577193 1.6926408e-22)
(0.61404194 -0.0037182988 1.6767113e-22)
(0.62474813 -0.0034906435 -2.6097819e-23)
(0.63488198 -0.0033112026 8.4043137e-23)
(0.64593114 -0.0030818601 7.6291051e-23)
(0.65382954 -0.0031323481 -1.946639e-22)
(0.67009141 -0.002612431 -3.8026633e-23)
(0.067614676 -0.024029143 9.4528284e-21)
(0.073589657 -0.026749045 3.2950986e-21)
(0.082265492 -0.028805564 -1.2162199e-20)
(0.091947803 -0.029968499 -1.2257901e-21)
(0.10198319 -0.030767859 1.4970585e-20)
(0.11254632 -0.031330886 -1.488712e-20)
(0.12367594 -0.031636065 -2.9842264e-20)
(0.13529679 -0.031712999 1.4493518e-20)
(0.14735693 -0.031607629 1.8181961e-20)
(0.15982339 -0.031350049 -1.1598513e-20)
(0.17266056 -0.030961813 1.019055e-21)
(0.18583078 -0.030462746 8.686014e-21)
(0.1992978 -0.029870544 -1.5253537e-20)
(0.21302653 -0.029200231 2.909513e-21)
(0.22698239 -0.028464752 7.5194333e-21)
(0.24113136 -0.027675496 3.1598862e-23)
(0.25544011 -0.02684255 2.6556447e-22)
(0.26987602 -0.025974888 -7.4150834e-21)
(0.28440727 -0.025080556 3.8616808e-21)
(0.29900294 -0.024166811 8.4749019e-21)
(0.31363309 -0.023240225 -3.8351748e-21)
(0.32826887 -0.022306765 -2.2130359e-21)
(0.34288266 -0.021371847 1.0124438e-21)
(0.35744815 -0.020440378 -1.7155317e-21)
(0.37194044 -0.019516785 1.353225e-21)
(0.38633613 -0.018605038 7.1845896e-22)
(0.40061344 -0.017708666 1.5268376e-21)
(0.41475217 -0.016830775 -1.9526603e-21)
(0.42873385 -0.01597406 2.2235663e-21)
(0.44254169 -0.015140824 5.5188491e-22)
(0.45616066 -0.014332996 4.0322475e-22)
(0.46957741 -0.01355215 3.2134454e-22)
(0.48278032 -0.01279953 8.7324878e-22)
(0.49575943 -0.012076075 -1.3708585e-21)
(0.50850644 -0.011382446 3.7065499e-22)
(0.52101467 -0.010719056 1.0941228e-22)
(0.533279 -0.010086105 -4.517205e-23)
(0.54529591 -0.0094836084 8.6732929e-23)
(0.55706334 -0.0089114467 -3.7184886e-22)
(0.56858112 -0.0083693794 1.8293444e-22)
(0.57984984 -0.0078571875 -3.498707e-23)
(0.59087465 -0.0073744527 3.9004039e-22)
(0.60165447 -0.0069216042 -1.8544357e-22)
(0.61221619 -0.0064970536 4.7323316e-23)
(0.62251467 -0.0061071895 4.3603346e-23)
(0.63273364 -0.0057363246 -7.3599017e-23)
(0.64241404 -0.0054443989 -1.2082379e-22)
(0.65299953 -0.0050704921 3.8808909e-22)
(0.66054955 -0.0051542365 1.7270446e-22)
(0.67619315 -0.0043070024 -8.3039638e-22)
(0.15021527 -0.031460424 1.5010127e-21)
(0.15354688 -0.035257389 -1.1566608e-20)
(0.16061621 -0.038010914 6.6441958e-21)
(0.16880588 -0.039479091 -1.332474e-20)
(0.17698222 -0.040520682 -1.9758307e-21)
(0.18552344 -0.041302273 9.1599372e-21)
(0.19458417 -0.041757229 -9.766214e-21)
(0.20408689 -0.041913702 1.5662774e-21)
(0.21398765 -0.041833322 1.2903796e-20)
(0.22427596 -0.041554326 3.4031981e-21)
(0.2349325 -0.041102036 -6.2096944e-21)
(0.24593018 -0.04050044 -2.8638084e-21)
(0.25724155 -0.039771739 -5.8409051e-21)
(0.26883908 -0.038935046 -6.4553119e-21)
(0.28069419 -0.038006966 3.2356922e-21)
(0.29277759 -0.037002293 8.4621118e-22)
(0.3050597 -0.035934316 1.3679573e-21)
(0.31751094 -0.034815013 -3.385041e-21)
(0.33010191 -0.03365524 -4.2428842e-21)
(0.34280357 -0.032464886 2.3616499e-21)
(0.35558751 -0.031252987 3.2251341e-21)
(0.36842607 -0.030027806 -1.5636185e-21)
(0.38129254 -0.028796892 1.586726e-21)
(0.39416127 -0.027567123 -3.9123951e-22)
(0.40700784 -0.026344734 -3.9196384e-21)
(0.41980917 -0.025135343 -3.0332803e-21)
(0.43254356 -0.023943967 -1.902625e-22)
(0.44519082 -0.02277504 4.2858945e-22)
(0.4577323 -0.021632431 -2.2106024e-21)
(0.47015091 -0.020519467 -8.5497057e-22)
(0.4824312 -0.019438956 2.2837646e-22)
(0.49455927 -0.018393211 -1.249867e-21)
(0.50652285 -0.017384088 6.263264e-24)
(0.51831125 -0.016413016 -4.2420811e-22)
(0.52991531 -0.015481037 -4.7193583e-22)
(0.54132743 -0.014588849 -5.1995563e-22)
(0.55254149 -0.013736846 -8.4132916e-22)
(0.56355293 -0.012925168 -5.4496406e-23)
(0.57435856 -0.012153762 -3.91604e-24)
(0.58495703 -0.011422406 -5.1972203e-22)
(0.59534778 -0.010730902 -9.1607167e-23)
(0.60553464 -0.010078775 -3.3239261e-22)
(0.61551544 -0.0094667158 -4.3759758e-22)
(0.62531518 -0.0088926275 3.7841584e-22)
(0.63488924 -0.0083653944 1.4820914e-23)
(0.64441367 -0.007863571 1.8237492e-22)
(0.65344692 -0.0074693289 -1.3246587e-22)
(0.66336949 -0.0069629396 -2.6690906e-22)
(0.67042155 -0.0070791384 -4.4692909e-23)
(0.68517843 -0.0059326715 4.6229449e-22)
(0.25468562 -0.036552747 -2.0900304e-20)
(0.25447016 -0.041393498 4.7585947e-20)
(0.25907328 -0.044745645 1.0348097e-20)
(0.26508407 -0.046442029 -1.5765318e-20)
(0.27070927 -0.0477143 -2.0227925e-21)
(0.27651988 -0.048747761 2.6232251e-21)
(0.28283543 -0.049413702 -1.6608197e-21)
(0.28957683 -0.049728083 -4.6861407e-21)
(0.2966965 -0.049761414 -4.0159158e-21)
(0.30420539 -0.049557035 -1.2207636e-20)
(0.31210209 -0.04914167 1.7897749e-20)
(0.32036928 -0.048540784 6.5219882e-21)
(0.3289869 -0.047778947 -1.678052e-20)
(0.33793392 -0.046878001 1.0317572e-20)
(0.34718697 -0.045857282 8.3849902e-21)
(0.35672063 -0.044734295 -8.7923762e-22)
(0.36650833 -0.043525049 -3.1222231e-21)
(0.37652276 -0.04224423 -3.8197297e-21)
(0.38673628 -0.040905341 -1.389257e-21)
(0.39712117 -0.039520834 -1.2304184e-21)
(0.40764995 -0.038102203 -3.0257588e-21)
(0.41829564 -0.03666005 0)
(0.42903198 -0.035204136 -1.3451903e-21)
(0.43983358 -0.033743403 3.9309494e-21)
(0.45067608 -0.032286009 5.4052635e-21)
(0.46153633 -0.030839335 -9.4112532e-22)
(0.47239241 -0.029410008 -2.927441e-21)
(0.48322381 -0.028003916 3.0258352e-21)
(0.4940114 -0.026626224 2.5447525e-22)
(0.50473754 -0.025281407 3.4352416e-21)
(0.51538605 -0.023973269 -5.345972e-22)
(0.52594227 -0.022704987 1.717345e-21)
(0.53639304 -0.021479141 -7.9964243e-22)
(0.54672668 -0.020297769 2.9094042e-22)
(0.55693298 -0.019162406 -4.3403831e-22)
(0.5670032 -0.018074141 5.6231545e-22)
(0.57693002 -0.017033675 4.5709755e-22)
(0.5867076 -0.016041377 3.8255481e-22)
(0.59633145 -0.015097363 -9.5935911e-22)
(0.60579885 -0.014201529 6.8355203e-22)
(0.61510783 -0.013353796 -3.6957231e-22)
(0.62426075 -0.012553723 -1.1033138e-21)
(0.63325417 -0.011802343 1.4078102e-21)
(0.64211081 -0.011097162 -6.2005529e-23)
(0.65078686 -0.010449484 -1.5815887e-22)
(0.6594488 -0.0098326083 -7.8243964e-24)
(0.66767729 -0.0093492225 -1.2621438e-22)
(0.67677311 -0.0087261811 -4.6582072e-22)
(0.68320495 -0.0088736179 8.7882903e-22)
(0.69685035 -0.0074648724 -4.4315555e-23)
(0.37635125 -0.038368153 -1.7495095e-20)
(0.37170972 -0.044270215 1.2832048e-20)
(0.37286685 -0.048161597 2.9754543e-21)
(0.3759104 -0.050098834 -7.6353723e-21)
(0.37830521 -0.051669954 1.2055979e-20)
(0.38072287 -0.053042355 7.791409e-21)
(0.38367595 -0.054030021 -1.2647687e-20)
(0.38710051 -0.054633083 -6.0679756e-21)
(0.39092917 -0.054917983 1.2697338e-20)
(0.39518236 -0.054927113 -1.530497e-20)
(0.39987417 -0.054687493 -1.4063188e-20)
(0.40499499 -0.05422463 1.4129631e-20)
(0.41052854 -0.053563637 6.8193824e-21)
(0.41645709 -0.052727925 -4.2037651e-21)
(0.42276005 -0.051738993 -1.854561e-21)
(0.42941394 -0.050616725 -4.0581714e-21)
(0.43639338 -0.049379677 5.3047594e-21)
(0.44367186 -0.048045202 3.6682083e-21)
(0.45122214 -0.046629523 -3.2408291e-21)
(0.45901668 -0.04514779 3.1379482e-21)
(0.46702796 -0.043614133 2.7666792e-21)
(0.47522879 -0.042041701 -3.2111121e-21)
(0.48359256 -0.040442675 3.7056556e-22)
(0.49209342 -0.03882829 -3.2571637e-21)
(0.5007065 -0.037208838 7.2454108e-21)
(0.50940799 -0.035593679 6.1080571e-21)
(0.51817529 -0.033991253 8.0973099e-22)
(0.52698708 -0.032409094 -1.7683223e-21)
(0.53582339 -0.030853855 3.7021743e-21)
(0.54466564 -0.029331328 7.1885141e-21)
(0.55349668 -0.027846488 2.3049296e-21)
(0.56230078 -0.026403528 3.3164837e-21)
(0.57106366 -0.025005909 1.9956193e-21)
(0.57977245 -0.023656418 7.4557853e-22)
(0.58841571 -0.022357223 -2.6374539e-22)
(0.59698339 -0.021109938 2.7203088e-21)
(0.60546685 -0.019915695 6.1992101e-22)
(0.61385884 -0.018775214 2.948773e-22)
(0.62215347 -0.017688898 5.6232402e-23)
(0.63034655 -0.016656871 9.8966333e-22)
(0.63843466 -0.015679281 4.7020012e-23)
(0.64641854 -0.014755827 4.4247315e-22)
(0.65429349 -0.01388796 -1.2621764e-22)
(0.66207974 -0.013072915 -2.7734737e-22)
(0.66973459 -0.012324318 -1.5218575e-22)
(0.67741346 -0.011610802 -4.22077e-22)
(0.68472326 -0.011053502 1.6139186e-22)
(0.69287145 -0.010332293 -1.2723541e-22)
(0.69859428 -0.010509391 -5.0126387e-22)
(0.71095663 -0.0088817201 2.4586871e-22)
(0.50927424 -0.035974261 3.647143e-21)
(0.49953033 -0.04296064 -1.8958303e-20)
(0.49627549 -0.047383436 -2.3083843e-21)
(0.49555584 -0.04973674 5.486948e-21)
(0.49416944 -0.051818003 3.052812e-21)
(0.49269564 -0.053705368 -4.9884465e-23)
(0.49181219 -0.055187604 6.1896653e-21)
(0.4915144 -0.056265352 7.6251005e-21)
(0.49171155 -0.056990484 9.8580395e-21)
(0.49241061 -0.057395523 -1.1250039e-20)
(0.49363092 -0.057506249 -2.1579418e-20)
(0.49536765 -0.057348363 -3.9353466e-21)
(0.49760455 -0.056947075 1.593814e-20)
(0.50032289 -0.056326952 1.2808956e-20)
(0.50350152 -0.055511674 -5.9066944e-21)
(0.50711638 -0.054523785 1.3817049e-21)
(0.51114125 -0.053384721 -3.6600826e-21)
(0.5155486 -0.052114874 2.2443739e-21)
(0.52031013 -0.050733581 -2.9123015e-22)
(0.52539718 -0.049259097 -1.865409e-21)
(0.53078109 -0.047708591 7.8265859e-21)
(0.53643348 -0.046098139 -2.9308757e-22)
(0.54232653 -0.044442717 4.1818091e-22)
(0.54843322 -0.042756189 -6.5646654e-22)
(0.55472742 -0.041051308 -4.3029363e-21)
(0.56118412 -0.039339712 4.2085139e-21)
(0.56777946 -0.037631931 1.9031212e-21)
(0.57449088 -0.035937406 -3.3081902e-21)