/*--------------------------------*- C++ -*----------------------------------*\
  =========                 |
  \\      /  F ield         | OpenFOAM: The Open Source CFD Toolbox
   \\    /   O peration     | Website:  https://openfoam.org
    \\  /    A nd           | Version:  6
     \\/     M anipulation  |
\*---------------------------------------------------------------------------*/
FoamFile
{
    version     2.0;
    format      ascii;
    class       surfaceScalarField;
    location    "36";
    object      phi_0;
}
// * * * * * * * * * * * * * * * * * * * * * * * * * * * * * * * * * * * * * //

dimensions      [0 3 -1 0 0 0 0];

internalField   nonuniform List<scalar> 
18180
(
0.00032217201
-0.00016982761
-0.00015234439
0.0013229911
-0.0013943859
0.00039356676
0.0030643006
-0.003389439
0.0016481295
0.0056065268
-0.006067347
0.0035251208
0.0090083433
-0.009373045
0.0059712285
0.013324599
-0.013262825
0.0089465696
0.018603567
-0.017698857
0.012419889
0.024883887
-0.022646417
0.016366097
0.032191327
-0.028070715
0.020763275
0.040535639
-0.033934252
0.02558994
0.049907834
-0.040195062
0.030822868
0.060278244
-0.046805807
0.036435396
0.071595805
-0.053713728
0.042396167
0.083788994
-0.060861474
0.048668285
0.096769053
-0.068188891
0.055208832
0.110436
-0.07563588
0.061968935
0.12468685
-0.083146154
0.068895302
0.13943099
-0.090671596
0.075927451
0.15466348
-0.098194037
0.082961551
-0.10571082
0.08979556
0.17057874
0.00040140782
-0.00057123542
0.0016250598
-0.0026180378
0.0037241981
-0.0054885773
0.0067497681
-0.0090929169
0.010748462
-0.013371739
0.015758949
-0.018273313
0.021807768
-0.023747676
0.02890527
-0.029743919
0.037041933
-0.036207378
0.046185442
-0.043077761
0.056278981
-0.050288602
0.067241117
-0.057767943
0.078967492
-0.065440102
0.091334421
-0.073228404
0.10420417
-0.081058643
0.11743129
-0.088862993
0.13086898
-0.09658385
0.14437609
-0.1041787
0.1578161
-0.11163404
-0.1188814
0.17098667
0.0004849782
-0.0010562136
0.0019356463
-0.004068706
0.0043902026
-0.0079431336
0.0078830705
-0.012585785
0.012440526
-0.017929194
0.018075173
-0.023907959
0.024780769
-0.030453272
0.032527905
-0.037491056
0.041260974
-0.044940447
0.050896937
-0.052713724
0.061326265
-0.060717929
0.072416207
-0.068857885
0.084016262
-0.077040157
0.095965393
-0.085177535
0.10810024
-0.093193494
0.12026325
-0.10102599
0.13230941
-0.10863001
0.14410981
-0.1159791
0.15554403
-0.12306827
-0.12984927
0.16651191
0.00057091457
-0.0016271282
0.0022460649
-0.0057438563
0.0050403208
-0.010737389
0.0089629015
-0.016508366
0.014009946
-0.022976239
0.020157531
-0.030055543
0.027356278
-0.037652019
0.035528035
-0.045662813
0.044565081
-0.053977493
0.05433223
-0.062480873
0.06467186
-0.071057559
0.075411503
-0.079597529
0.086373284
-0.088001937
0.097384151
-0.096188403
0.10828576
-0.10409511
0.11894284
-0.11168308
0.12924915
-0.11893632
0.13912996
-0.12585992
0.14853878
-0.13247709
-0.13878917
0.15747868
0.00065592746
-0.0022830556
0.0025431989
-0.0076311277
0.0056442136
-0.013838404
0.0099335432
-0.020797695
0.015367401
-0.028410097
0.021876047
-0.036564189
0.029359535
-0.045135507
0.037686987
-0.053990265
0.04669963
-0.062990136
0.056217446
-0.071998689
0.066048783
-0.080888895
0.076001815
-0.089550561
0.085896462
-0.097896584
0.095575293
-0.10586723
0.10491212
-0.11343193
0.11381743
-0.12058838
0.12224029
-0.12735918
0.13016692
-0.13378654
0.13761599
-0.13992616
-0.14582354
0.14465036
0.00073584216
-0.0030188978
0.0028111224
-0.009706408
0.0061667009
-0.017193983
0.010733518
-0.025364512
0.016419593
-0.034096171
0.023103181
-0.043247778
0.03063127
-0.052663595
0.038822956
-0.062181952
0.047477322
-0.071644502
0.056384782
-0.080906149
0.065340375
-0.089844488
0.07415713
-0.098367316
0.082677694
-0.10641715
0.090782765
-0.1139723
0.098395403
-0.12104457
0.10548109
-0.12767407
0.11204407
-0.13392216
0.11812102
-0.13986349
0.1237733
-0.14557844
-0.1511393
0.12908905
0.00080594292
-0.0038248407
0.0030324973
-0.011932962
0.0065711387
-0.020732624
0.011302067
-0.03009544
0.017079984
-0.039874089
0.023729666
-0.04989746
0.031048667
-0.059982596
0.038815695
-0.069948979
0.046803238
-0.079632045
0.054792431
-0.088895342
0.062587778
-0.097639835
0.070029482
-0.10580902
0.077001698
-0.11338936
0.083435784
-0.12040639
0.0893086
-0.12691739
0.094636656
-0.13300213
0.099467536
-0.13875304
0.10387024
-0.14426619
0.10792607
-0.14963427
-0.15493896
0.11172574
0.00086109727
-0.004685938
0.0031895183
-0.014261383
0.0068221622
-0.024365268
0.011584664
-0.034857942
0.017277746
-0.045567171
0.023676787
-0.056296501
0.030539624
-0.066845433
0.037619754
-0.07702911
0.044682408
-0.086694699
0.051520576
-0.09573351
0.057968195
-0.10408745
0.063908463
-0.11174929
0.069276323
-0.11875722
0.074055289
-0.12518536
0.078269768
-0.13113187
0.081974591
-0.13670695
0.085243719
-0.14202217
0.088159853
-0.14718233
0.090806229
-0.15228065
-0.15739544
0.09326271
0.00089493299
-0.005580871
0.0032639542
-0.016630405
0.0068879398
-0.027989254
0.011538171
-0.039508173
0.016965608
-0.050994608
0.02290557
-0.062236463
0.029090533
-0.073030396
0.035266883
-0.08320546
0.041212113
-0.092639928
0.046749094
-0.10127049
0.051754871
-0.10909323
0.056162808
-0.11615723
0.059958367
-0.12255278
0.063169911
-0.1283969
0.065856621
-0.13381858
0.068095782
-0.13894611
0.069971317
-0.1438977
0.071564951
-0.14877596
0.072950544
-0.15366624
-0.15863622
0.074191319
0.00090394582
-0.0064848168
0.0032467078
-0.018973166
0.0067538308
-0.031496377
0.01114629
-0.043900633
0.016134199
-0.055982517
0.021426524
-0.067528787
0.026747686
-0.078351559
0.031855574
-0.088313347
0.036556975
-0.09734133
0.040717268
-0.10543078
0.044262794
-0.11263876
0.047176075
-0.11907051
0.04948549
-0.1248622
0.051251824
-0.13016323
0.05255422
-0.13512097
0.05347767
-0.13986956
0.054103456
-0.14452349
0.054503121
-0.14917562
0.05473576
-0.15389888
0.054847017
-0.15874747
-0.00020452258
0.00020452264
-4.3158322e-11
-0.00068463348
0.00048011102
-1.0625211e-10
-0.0013556247
0.00067099142
-1.6549019e-10
-0.0021526223
0.00079699778
-2.1724291e-10
-0.0030234507
0.00087082872
-2.590799e-10
-0.003925493
0.00090204262
-2.9637249e-10
-0.0048234199
0.00089792726
-3.2597375e-10
-0.0056872909
0.00086387134
-3.5409427e-10
-0.0064910599
0.00080376945
-3.7474101e-10
-0.0072114059
0.00072034639
-3.9488084e-10
-0.0078267981
0.0006153927
-4.0528969e-10
-0.0083167471
0.00048994948
-4.1421289e-10
-0.0086612119
0.00034446523
-4.0939546e-10
-0.0088401544
0.00017894293
-4.0121471e-10
-0.008833273
-6.8809099e-06
-3.7416976e-10
-0.0086200216
-0.00021325106
-3.4092458e-10
-0.0081798724
-0.00044014881
-2.8100678e-10
-0.0074919028
-0.00068796935
-2.1213403e-10
-0.0065343702
-0.0009575324
-1.0877112e-10
-0.0012350959
-0.0052992743
2.071884e-11
-0.00018986118
0.00039438383
-0.00063099321
0.00092124306
-0.0012400613
0.0012800596
-0.0019522955
0.001509232
-0.0027148852
0.0016334185
-0.0034839929
0.0016711503
-0.0042225724
0.0016365068
-0.0048985313
0.0015398303
-0.00548327
0.0013885082
-0.0059505276
0.001187604
-0.0062754509
0.00094031606
-0.0064338376
0.0006483362
-0.0064015184
0.00031214599
-0.0061538639
-6.871143e-05
-0.0056654483
-0.00049529648
-0.0049099596
-0.00096873974
-0.0038604096
-0.0014896988
-0.0024890562
-0.0020593227
-0.00076723994
-0.0026793486
-0.0033197135
0.0013173778
-0.00016032387
0.00055470771
-0.00052315961
0.0012840788
-0.001008474
0.001765374
-0.0015522189
0.0020529768
-0.0021007308
0.0021819304
-0.0026081024
0.0021785219
-0.0030342083
0.0020626127
-0.0033430124
0.0018486344
-0.0035012013
0.001546697
-0.00347709
0.0011634928
-0.0032397247
0.00070295083
-0.0027581476
0.00016675913
-0.0020007516
-0.00044524998
-0.00093475783
-0.0011347051
0.00047422431
-0.0019042786
0.0022624912
-0.0027570066
0.00446822
-0.0036954276
0.0071311507
-0.0047222533
0.010292504
-0.0058407022
-0.0070002592
0.01397305
-0.00011831154
0.00067301925
-0.00036896619
0.0015347335
-0.00067636891
0.0020727768
-0.00097750122
0.0023541091
-0.0012175897
0.002422019
-0.00134795
0.0023088821
-0.0013243076
0.0020389704
-0.0011053226
0.0016296495
-0.00065137747
0.001092752
7.6389429e-05
0.0004357259
0.0011168798
-0.00033753947
0.0025096886
-0.0012260497
0.0042956536
-0.002231215
0.0065173407
-0.0033563921
0.0092195539
-0.0046064918
0.0124499
-0.0059873525
0.016259172
-0.0075047001
0.020701055
-0.0091641359
0.025831902
-0.010971549
-0.012852197
0.031683839
-6.6926416e-05
0.00073994568
-0.00017853342
0.0016463405
-0.00026386274
0.0021581061
-0.00026087996
0.0023511264
-0.0001134123
0.0022745513
0.0002305011
0.0019649687
0.00081994992
0.0014495216
0.0017023336
0.00074726584
0.0029243423
-0.00012925679
0.0045327475
-0.0011726793
0.0065749662
-0.0023797582
0.0090994738
-0.0037505572
0.012156125
-0.0052878659
0.015796469
-0.0069967362
0.020074105
-0.0088841282
0.025045285
-0.010958532
0.030769781
-0.013229196
0.037311408
-0.015705762
0.044738803
-0.018398945
-0.02120923
0.053095837
-9.2815505e-06
0.00074922724
3.7806819e-05
0.0015992521
0.00020823022
0.0019876827
0.0005633717
0.0019959849
0.001161066
0.001676857
0.0020567593
0.0010692754
0.0033044764
0.00020180447
0.0049577057
-0.00090596342
0.0070700525
-0.0022416036
0.0096956046
-0.0037982314
0.012889133
-0.0055732862
0.016706176
-0.0075676004
0.021202941
-0.0097846316
0.026436108
-0.012229903
0.032462679
-0.014910699
0.039340224
-0.017836077
0.047128012
-0.021016984
0.055889053
-0.024466803
0.065693973
-0.028203865
-0.032109975
0.076594718
5.211926e-05
0.00069710798
0.00027141853
0.0013799529
0.00072200813
0.0015370931
0.0014650535
0.0012529395
0.0025601384
0.00058177211
0.0040660166
-0.00043660271
0.0060411973
-0.0017733762
0.0085443161
-0.0034090822
0.011634248
-0.0053315357
0.015370058
-0.0075340412
0.019810698
-0.010013926
0.025014443
-0.012771345
0.031038106
-0.015808295
0.037936085
-0.019127881
0.045759353
-0.022733967
0.054554829
-0.026631553
0.064366088
-0.030828243
0.075236675
-0.03533739
0.087219046
-0.040186236
-0.045258651
0.10036772
0.0001157506
0.00058135739
0.00051651161
0.00097919187
0.0012646798
0.00078892493
0.0024214445
9.6174829e-05
0.0040478785
-0.0010446618
0.0062052561
-0.0025939804
0.0089550054
-0.0045231255
0.012358502
-0.0068125788
0.016476627
-0.0094496603
0.021368973
-0.012426388
0.02709276
-0.015737713
0.033701441
-0.019380026
0.041243056
-0.02334991
0.049758356
-0.027643181
0.059278832
-0.032254444
0.069825022
-0.037177743
0.08140623
-0.04240945
0.094023545
-0.047954705
0.10768121
-0.053843902
-0.05999746
0.12242002
0.00018096147
0.00040039592
0.00077003191
0.00039012144
0.0018284478
-0.00026949091
0.0034170934
-0.0014924708
0.0055974554
-0.0032250238
0.0084313263
-0.0054278513
0.011980136
-0.0080719353
0.016303975
-0.011136418
0.021460253
-0.014605938
0.027502012
-0.018468146
0.034475924
-0.022711625
0.042420025
-0.027324127
0.051361218
-0.032291104
0.061312591
-0.037594553
0.072270532
-0.043212386
0.084211729
-0.04911894
0.09709096
-0.055288681
0.11084244
-0.061706185
0.12539313
-0.068394589
-0.075358422
0.14075409
0.00024805153
0.0010317397
0.0024103784
0.0044430284
0.007189233
0.010707951
0.015055905
0.020285584
0.026442921
0.033564714
0.041675957
0.050787226
0.060892289
0.071966022
0.083962469
0.096812464
0.11041909
0.12464035
0.13920731
0.15364445
-0.0032988146
-0.0020004599
2.8296768e-10
-0.0010080686
-0.0022907467
6.5256639e-10
0.0015512774
-0.002559347
1.1164682e-09
0.0043219427
-0.0027706668
1.6717318e-09
0.0072773716
-0.0029554312
2.3110404e-09
0.010400778
-0.003123409
3.0306455e-09
0.013673673
-0.0032728992
3.8255204e-09
0.017078448
-0.00340478
4.6767369e-09
0.020599858
-0.0035214147
5.5362599e-09
0.024224177
-0.003624326
6.3413443e-09
0.027938645
-0.0037144752
7.0517594e-09
0.0317314
-0.0037927619
7.6129409e-09
0.035591411
-0.003860019
7.992113e-09
0.039508358
-0.0039169548
8.1337354e-09
0.043472536
-0.0039641866
7.997072e-09
0.047474809
-0.0040022805
7.5155269e-09
0.051506573
-0.0040317702
6.6415597e-09
0.055559741
-0.0040531735
5.3102232e-09
0.059626747
-0.0040670093
3.4898976e-09
0.063700559
-0.0040738129
1.1439743e-09
0.067774709
-0.0040741483
-1.711934e-09
0.071843333
-0.0040686191
-5.0539319e-09
0.075901219
-0.0040578772
-8.7831231e-09
0.079943862
-0.0040426302
-1.2782926e-08
0.083967526
-0.0040236472
-1.6839952e-08
0.087969311
-0.0040017637
-2.0726463e-08
0.091947221
-0.0039778857
-2.4106778e-08
0.09590024
-0.0039529926
-2.6661725e-08
0.099828407
-0.0039281394
-2.7975916e-08
0.10373289
-0.0039044564
-2.7720446e-08
0.10761606
-0.003883147
-2.5510964e-08
0.11148156
-0.0038654779
-2.1162092e-08
0.11533434
-0.0038527611
-1.4494242e-08
0.11918066
-0.0038463191
-5.658815e-09
0.12302809
-0.0038474276
5.144082e-09
0.1268853
-0.003857227
1.7285811e-08
0.13076186
-0.0038765967
3.0123766e-08
0.13466781
-0.0039059913
4.2607275e-08
0.13861301
-0.0039452527
5.3818517e-08
0.14260635
-0.003993403
6.264749e-08
0.14665482
-0.0040485332
6.8300528e-08
0.15076233
-0.0041075816
7.016823e-08
0.15492923
-0.0041669677
6.7971848e-08
0.15915021
-0.0042210435
6.1903085e-08
0.1634191
-0.0042689479
5.2492677e-08
0.16771362
-0.0042945603
4.0560079e-08
0.17205252
-0.0043389198
2.7067977e-08
0.17632137
-0.0042688702
1.2995341e-08
0.18087319
-0.0045518164
-4.9520663e-10
-0.0039249137
-1.7868557e-08
0.0032008639
-0.003883946
0.0053693583
-0.004459241
0.0077928619
-0.0049828505
0.010408518
-0.0053863224
0.013195508
-0.0057424221
0.016142086
-0.0060699868
0.019231983
-0.0063627956
0.022449213
-0.0066220103
0.025780228
-0.00685243
0.029212779
-0.007056877
0.032735275
-0.007236971
0.036336813
-0.0073942995
0.040007164
-0.0075303703
0.043736672
-0.0076464629
0.04751618
-0.0077436946
0.051337001
-0.0078231007
0.055190901
-0.0078856702
0.059070101
-0.0079323737
0.062967287
-0.0079641957
0.066875636
-0.0079821619
0.070788851
-0.0079873628
0.074701205
-0.007980973
0.078607595
-0.0079642675
0.0825036
-0.007938635
0.086385542
-0.0079055892
0.090250556
-0.0078667772
0.094096657
-0.0078239873
0.09792282
-0.007779155
0.10172905
-0.007734366
0.10551645
-0.007691857
0.10928731
-0.0076540101
0.11304517
-0.0076233349
0.11679484
-0.0076024327
0.12054245
-0.0075939292
0.12429538
-0.0076003614
0.12806216
-0.0076240041
0.13185218
-0.0076666215
0.13567533
-0.0077291413
0.13954136
-0.0078112826
0.1434591
-0.0079111397
0.14743553
-0.0080249647
0.15147466
-0.0081467118
0.15557702
-0.0082693213
0.15973754
-0.0083815662
0.16395046
-0.008481869
0.16819383
-0.0085379281
0.17248683
-0.0086319216
0.17671579
-0.0084978345
0.18122944
-0.0090654638
-0.0078295997
0.015612127
-0.005523023
0.017518166
-0.0063652798
0.019654901
-0.0071195852
0.021952109
-0.0076835303
0.024398465
-0.0081887787
0.026990954
-0.0086624754
0.029717468
-0.0090893092
0.03256497
-0.0094695123
0.035522852
-0.0098103125
0.038581426
-0.01011545
0.041731138
-0.010386683
0.04496273
-0.010625892
0.048267332
-0.010834972
0.051636399
-0.01101553
0.055061682
-0.011168978
0.058535232
-0.011296651
0.062049419
-0.011399857
0.065596954
-0.011479909
0.069170926
-0.011538167
0.072764836
-0.011576073
0.076372654
-0.011595181
0.079988864
-0.011597183
0.083608529
-0.011583932
0.087227349
-0.011557455
0.090841728
-0.011519969
0.094448847
-0.011473895
0.098046726
-0.011421866
0.10163431
-0.011366735
0.10521152
-0.011311579
0.10877936
-0.0112597
0.11233997
-0.011214618
0.11589668
-0.011180045
0.11945408
-0.011159835
0.12301804
-0.011157882
0.12659564
-0.011177964
0.13019512
-0.011223482
0.13382559
-0.011297098
0.13749671
-0.011400255
0.14121804
-0.011532617
0.14499836
-0.011691455
0.1488447
-0.011871312
0.15276131
-0.012063317
0.1567491
-0.012257109
0.16080359
-0.012436055
0.16491973
-0.012598017
0.16907654
-0.012694736
0.17329337
-0.012848747
0.17746007
-0.012664535
0.18191189
-0.013517287
-0.011712593
0.032939639
-0.0067788225
0.034432919
-0.0078585599
0.036123259
-0.0088099253
0.037937837
-0.0094981082
0.03987777
-0.010128712
0.041949989
-0.010734694
0.044147869
-0.011287189
0.046462374
-0.011784017
0.048886447
-0.012234386
0.051413425
-0.012642428
0.054036194
-0.013009452
0.05674743
-0.013337128
0.059539795
-0.013627337
0.062405979
-0.013881714
0.065338716
-0.014101715
0.068330838
-0.014288773
0.071375331
-0.01444435
0.074465396
-0.014569973
0.077594505
-0.014667276
0.080756466
-0.014738033
0.083945481
-0.014784196
0.087156216
-0.014807918
0.090383862
-0.014811578
0.093624203
-0.014797796
0.096873688
-0.014769454
0.1001295
-0.014729704
0.10338961
-0.014681981
0.10665289
-0.014630013
0.10991913
-0.014577821
0.11318916
-0.014529729
0.11646489
-0.014490344
0.11974937
-0.014464531
0.12304689
-0.014457349
0.12636293
-0.014473925
0.12970421
-0.014519248
0.13307857
-0.014597842
0.13649477
-0.014713291
0.13996212
-0.014867611
0.14349002
-0.015060513
0.14708715
-0.015288588
0.1507607
-0.01554486
0.15451523
-0.015817846
0.15835225
-0.016094133
0.16226813
-0.016351938
0.16625884
-0.016588728
0.17030486
-0.016740756
0.17442547
-0.016969355
0.1785165
-0.016755565
0.18289168
-0.017892466
-0.015578348
0.053810761
-0.0074937465
0.054730262
-0.0087780604
0.0558084
-0.0098880632
0.056980282
-0.010669991
0.058261377
-0.011409806
0.059666531
-0.012139849
0.061194804
-0.012815461
0.062841871
-0.013431084
0.064604072
-0.013996587
0.066477385
-0.014515741
0.0684569
-0.014988968
0.070536995
-0.015417223
0.072711593
-0.015801935
0.074974332
-0.016144453
0.077318667
-0.01644605
0.079737961
-0.016708067
0.082225585
-0.016931974
0.084775014
-0.017119402
0.087379908
-0.01727217
0.090034198
-0.017392323
0.09273216
-0.017482158
0.095468489
-0.017544248
0.098238374
-0.017581462
0.10103756
-0.017596985
0.10386244
-0.017594331
0.10671009
-0.017577351
0.10957836
-0.017550253
0.11246594
-0.017517598
0.11537244
-0.017484319
0.11829842
-0.017455711
0.1212455
-0.017437426
0.1242164
-0.017435431
0.127215
-0.017455948
0.13024637
-0.017505291
0.13331677
-0.017589643
0.13643357
-0.017714646
0.13960512
-0.017884841
0.1428404
-0.018102891
0.14614857
-0.018368684
0.14953829
-0.018678303
0.1530169
-0.019023478
0.15658944
-0.019390381
0.16025814
-0.019762835
0.16402043
-0.020114224
0.16787349
-0.020441791
0.1717997
-0.020666963
0.17581802
-0.020987674
0.17983227
-0.020769822
0.18412806
-0.022188258
-0.019439434
0.076595634
-0.0074946628
0.07677642
-0.008958846
0.077080544
-0.010192187
0.077465766
-0.011055213
0.077960972
-0.011905012
0.078583465
-0.012762343
0.07933678
-0.013568776
0.080221433
-0.014315738
0.081236313
-0.015011466
0.082378843
-0.015658271
0.083645389
-0.016255513
0.0850313
-0.016803134
0.086531078
-0.017301714
0.088138676
-0.01775205
0.089847706
-0.01815508
0.091651578
-0.018511939
0.093543617
-0.018824014
0.095517187
-0.019092972
0.097565802
-0.019320785
0.099683218
-0.019509739
0.10186352
-0.019662459
0.1041012
-0.019781927
0.10639124
-0.019871501
0.10872917
-0.019934918
0.11111116
-0.019976319
0.11353405
-0.020000244
0.11599545
-0.020011655
0.11849379
-0.020015934
0.12102836
-0.020018894
0.12359943
-0.020026775
0.12620824
-0.020046233
0.12885711
-0.020084305
0.13154949
-0.020148327
0.13428997
-0.020245778
0.13708434
-0.020384008
0.13993948
-0.020569789
0.1428633
-0.020808659
0.14586443
-0.021104022
0.14895183
-0.021456082
0.15213414
-0.021860616
0.15541897
-0.022308302
0.15881184
-0.022783258
0.16231586
-0.023266853
0.16592962
-0.023727987
0.16965168
-0.02416385
0.17346656
-0.024481839
0.17739268
-0.024913797
0.18134338
-0.024720523
0.18557118
-0.026416053
-0.023317919
0.099504787
-0.0066317281
0.098805965
-0.0082600238
0.098201793
-0.0095880156
0.097694355
-0.010547774
0.097320598
-0.011531255
0.097092137
-0.012533881
0.097014779
-0.013491419
0.097093109
-0.014394067
0.097327246
-0.015245603
0.097714495
-0.01604552
0.098251085
-0.016792103
0.098932233
-0.017484283
0.099752123
-0.018121603
0.10070423
-0.018704158
0.10178164
-0.019232488
0.10297721
-0.019707506
0.10428371
-0.020130515
0.10569397
-0.02050323
0.10720096
-0.020827783
0.10879795
-0.021106727
0.11047854
-0.021343043
0.11223676
-0.021540148
0.11406717
-0.02170191
0.11596489
-0.021832645
0.11792571
-0.021937133
0.11994609
-0.022020625
0.12202327
-0.022088839
0.12415532
-0.02214798
0.12634116
-0.022204737
0.12858066
-0.022266276
0.13087467
-0.022340242
0.13322507
-0.022434709
0.13563485
-0.022558107
0.13810813
-0.022719051
0.14065017
-0.022926052
0.14326741
-0.023187026
0.14596731
-0.023508561
0.14875819
-0.023894902
0.15164883
-0.024346725
0.15464792
-0.024859705
0.15776335
-0.02542373
0.16100125
-0.026021154
0.1643656
-0.026631209
0.16785627
-0.027218653
0.17147321
-0.027780791
0.17520321
-0.028211836
0.17906396
-0.028774552
0.18297924
-0.028635795
0.18716526
-0.030602074
-0.027245812
0.12064903
-0.0048607404
0.11901427
-0.006625257
0.11743705
-0.008010803
0.11600185
-0.0091125748
0.11474532
-0.010274721
0.11366533
-0.011453889
0.11276776
-0.012593854
0.11205942
-0.013685719
0.11154026
-0.014726444
0.11120626
-0.015711521
0.11105218
-0.016638024
0.11107196
-0.017504062
0.11125864
-0.018308284
0.11160459
-0.019050111
0.11210182
-0.019729721
0.11274219
-0.020347877
0.11351755
-0.020905866
0.11441983
-0.021405515
0.11544123
-0.021849181
0.11657424
-0.022239741
0.11781179
-0.022580586
0.11914726
-0.022875622
0.12057462
-0.023129273
0.12208845
-0.023346477
0.12368402
-0.023532698
0.12535731
-0.023693917
0.12710512
-0.023836648
0.12892507
-0.023967929
0.13081566
-0.024095332
0.13277635
-0.024226961
0.13480754
-0.024371435
0.13691069
-0.024537857
0.13908832
-0.024735734
0.14134407
-0.024974802
0.14368275
-0.025264731
0.14611032
-0.025614604
0.14863388
-0.02603212
0.15126145
-0.026522472
0.15400169
-0.027086968
0.15686339
-0.027721399
0.15985477
-0.028415112
0.1629826
-0.029148983
0.16625179
-0.029900405
0.16966345
-0.03063031
0.17321893
-0.03133627
0.17690724
-0.031900142
0.18074518
-0.032612493
0.18466731
-0.032557925
0.18885195
-0.034786717
-0.031264589
0.13821515
-0.002321797
0.13574273
-0.0041528401
0.13323623
-0.0055043037
0.13093659
-0.0068129357
0.12887074
-0.0082088727
0.12702048
-0.0096036267
0.12538907
-0.010962442
0.12398199
-0.012278645
0.12279819
-0.013542638
0.12183243
-0.014745759
0.12107777
-0.015883368
0.12052646
-0.016952749
0.12017011
-0.017951934
0.11999985
-0.018879856
0.12000654
-0.019736403
0.12018091
-0.020522247
0.12051378
-0.021238742
0.12099616
-0.021887895
0.12161933
-0.022472346
0.12237494
-0.022995359
0.12325515
-0.02346079
0.12425262
-0.023873089
0.12536063
-0.02423729
0.12657316
-0.024559004
0.12788488
-0.024844421
0.12929127
-0.025100305
0.13078861
-0.025333988
0.13237406
-0.02555338
0.13404569
-0.025766961
0.13580251
-0.02598378
0.13764452
-0.026213441
0.13957273
-0.026466072
0.14158925
-0.026752247
0.14369726
-0.027082818
0.14590115
-0.027468621
0.14820648
-0.027919927
0.15061997
-0.028445614
0.15314943
-0.029051929
0.15580344
-0.029740981
0.15859093
-0.03050889
0.16152054
-0.031344717
0.16459967
-0.032228113
0.16783418
-0.033134915
0.17122635
-0.034022486
0.17477888
-0.034888794
0.17848283
-0.035604098
0.18235394
-0.036483603
0.18633759
-0.036541569
0.19057337
-0.039022496
-0.035424002
0.15113404
0.00018861784
0.14788208
-0.00090088033
0.14462845
-0.00225068
0.14162904
-0.0038135208
0.13888692
-0.0054667562
0.13639631
-0.0071130174
0.13415959
-0.0087257216
0.13217726
-0.010296309
0.13044728
-0.011812664
0.12896497
-0.013263447
0.12772306
-0.014641452
0.12671271
-0.015942406
0.12592437
-0.017163595
0.12534802
-0.018303507
0.12497337
-0.019361749
0.12479004
-0.020338917
0.12478776
-0.021236465
0.1249565
-0.022056634
0.12528656
-0.022802407
0.12576869
-0.023477484
0.12639415
-0.024086253
0.12715483
-0.024633767
0.12804327
-0.025125731
0.12905276
-0.025568491
0.13017736
-0.02596902
0.13141197
-0.026334914
0.13275236
-0.026674382
0.13419522
-0.026996243
0.13573819
-0.027309923
0.13737985
-0.027625443
0.13911982
-0.027953409
0.14095872
-0.02830498
0.14289828
-0.028691798
0.14494129
-0.029125832
0.14709175
-0.029619082
0.14935486
-0.030183039
0.15173706
-0.030827812
0.15424595
-0.03156082
0.15689011
-0.032385138
0.15967864
-0.033297422
0.16262062
-0.034286697
0.16572413
-0.035331624
0.16899596
-0.036406743
0.17243946
-0.037465986
0.17605864
-0.038507974
0.17984604
-0.039391503
0.18381738
-0.040454943
0.18792432
-0.040648502
0.19227994
-0.043378125
-0.039774808
0.19053964
0.004719273
-0.1950703
0.18679878
0.0028399794
0.1834779
0.0010702065
0.18040737
-0.00074299562
0.17754986
-0.0026092475
0.17488054
-0.0044436973
0.17238169
-0.0062268669
0.17004474
-0.0079593607
0.16786623
-0.0096341507
0.16584444
-0.01124166
0.16397801
-0.012775024
0.16226536
-0.014229758
0.16070443
-0.015602659
0.15929253
-0.016891607
0.15802641
-0.01809563
0.15690232
-0.019214831
0.15591612
-0.020250266
0.15506336
-0.021203872
0.15433938
-0.022078427
0.15373941
-0.022877515
0.15325865
-0.023605493
0.15289235
-0.024267464
0.15263587
-0.024869253
0.15248477
-0.02541739
0.15243484
-0.025919094
0.15248218
-0.026382253
0.15262321
-0.026815414
0.15285474
-0.02722777
0.15317397
-0.027629149
0.15357852
-0.028029996
0.15406647
-0.028441359
0.15463634
-0.028874854
0.15528714
-0.02934259
0.15601833
-0.029857026
0.15682992
-0.03043067
0.15772242
-0.03107554
0.15869687
-0.031802266
0.15975479
-0.032618731
0.16089797
-0.033528324
0.16212828
-0.03452773
0.16344723
-0.03560565
0.16485545
-0.036739843
0.16635263
-0.037903923
0.16793616
-0.039049518
0.16960448
-0.040176287
0.17134787
-0.041134892
0.17317526
-0.042282333
0.17504205
-0.042515301
0.17704433
-0.045380399
-0.041687996
0.21842814
0.0080476081
-0.22175647
0.21502772
0.0062403958
0.2118893
0.0042086277
0.20886159
0.0022847127
0.20589598
0.00035636889
0.20302351
-0.0015712282
0.20026143
-0.003464792
0.19761473
-0.005312655
0.19508972
-0.0071091401
0.19269369
-0.0088456334
0.19043236
-0.010513698
0.1883097
-0.012107094
0.18632829
-0.013621253
0.18448949
-0.015052807
0.18279346
-0.0163996
0.18123933
-0.0176607
0.17982537
-0.0188363
0.17854913
-0.019927634
0.17740762
-0.020936917
0.17639741
-0.021867306
0.17551477
-0.022722855
0.17475578
-0.023508477
0.17411644
-0.024229906
0.17359272
-0.024893673
0.1731807
-0.025507077
0.17287661
-0.026078155
0.17267686
-0.026615664
0.17257814
-0.02712905
0.17257742
-0.027628435
0.17267201
-0.028124586
0.17285954
-0.028628892
0.17313802
-0.029153329
0.17350582
-0.029710387
0.17396172
-0.030312928
0.17450495
-0.030973904
0.17513523
-0.031705818
0.17585279
-0.032519823
0.17665836
-0.033424303
0.17755308
-0.034423044
0.17853823
-0.03551288
0.17961487
-0.036682294
0.18078336
-0.037908328
0.18204302
-0.039163586
0.1833916
-0.040398098
0.18482625
-0.041610936
0.18634102
-0.042649665
0.18793417
-0.043875476
0.18958992
-0.044171057
0.19131943
-0.047109911
-0.04342615
0.24522434
0.01070612
-0.24788286
0.24244317
0.0090215688
0.23966077
0.0069910246
0.2368881
0.0050573906
0.23408876
0.003155704
0.23128337
0.0012341654
0.2285032
-0.00068461982
0.22576795
-0.0025774122
0.22309393
-0.0044351193
0.22049743
-0.0062491325
0.21799277
-0.0080090324
0.21559146
-0.0097057863
0.2133027
-0.011332494
0.21113368
-0.012883789
0.20908973
-0.01435565
0.20717449
-0.015745455
0.20539012
-0.017051935
0.20373756
-0.018275073
0.20221668
-0.019416034
0.20082647
-0.020477102
0.19956525
-0.021461629
0.19843075
-0.02237398
0.19742033
-0.023219484
0.19653104
-0.024004388
0.19575978
-0.024735817
0.19510336
-0.025421735
0.1945586
-0.026070901
0.19412239
-0.026692836
0.19379174
-0.027297787
0.19356384
-0.027896684
0.19343606
-0.028501114
0.193406
-0.029123272
0.19347151
-0.029775896
0.19363073
-0.030472142
0.19388213
-0.031225312
0.19422466
-0.032048344
0.19465774
-0.032952905
0.19518138
-0.033947941
0.19579608
-0.035037743
0.19650265
-0.036219454
0.19730184
-0.037481484
0.1981939
-0.038800382
0.19917797
-0.040147658
0.20025235
-0.041472481
0.20141294
-0.042771523
0.20265805
-0.043894774
0.20397389
-0.045191317
0.20537741
-0.045574581
0.20678153
-0.048514025
-0.044951129
0.27058235
0.012683507
-0.27255974
0.26847362
0.011130302
0.26619385
0.0092707907
0.26382002
0.0074312242
0.26136105
0.0056146679
0.25882722
0.0037680025
0.25624466
0.0018979337
0.25363766
2.9593885e-05
0.25102651
-0.0018239759
0.24843153
-0.0036541535
0.24587238
-0.0054498817
0.24336663
-0.0072000337
0.24092951
-0.0088953765
0.2385741
-0.010528371
0.23631132
-0.012092871
0.23415005
-0.013584187
0.23209726
-0.014999143
0.23015819
-0.016336006
0.22833657
-0.017594417
0.2266348
-0.01877533
0.22505413
-0.019880956
0.22359485
-0.020914696
0.22225645
-0.021881087
0.2210378
-0.02278574
0.21993726
-0.02363528
0.21895283
-0.024437298
0.21808221
-0.025200286
0.21732296
-0.025933587
0.21667252
-0.026647342
0.21612827
-0.027352434
0.21568759
-0.02806044
0.21534791
-0.028783588
0.21510671
-0.029534691
0.2149616
-0.03032704
0.21491046
-0.031174168
0.21495149
-0.032089371
0.2150834
-0.033084822
0.21530555
-0.034170094
0.21561794
-0.035350123
0.21602105
-0.036622566
0.21651552
-0.037975952
0.21710172
-0.039386586
0.21777891
-0.040824845
0.21854607
-0.042239643
0.21939826
-0.043623713
0.22033756
-0.044834075
0.22133979
-0.046193548
0.22245009
-0.04668488
0.22349344
-0.049557376
-0.046219718
0.29413379
0.01397287
-0.29542316
0.29269928
0.012564811
0.29102501
0.010945063
0.28917802
0.009278212
0.28719385
0.0075988445
0.28508364
0.0058782058
0.28286598
0.0041155988
0.28056444
0.0023311352
0.27820049
0.0005399715
0.27579442
-0.0012480828
0.27336699
-0.0030224516
0.27093844
-0.0047714863
0.26852756
-0.0064844936
0.26615145
-0.0081522614
0.26382543
-0.0097668541
0.26156292
-0.011321676
0.25937539
-0.012811612
0.25727244
-0.014233057
0.25526191
-0.015583887
0.25335
-0.016863423
0.25154144
-0.018072394
0.24983963
-0.019212885
0.24824682
-0.020288279
0.24676427
-0.02130319
0.2453924
-0.022263405
0.24413091
-0.023175808
0.24297893
-0.024048314
0.24193514
-0.024889795
0.24099781
-0.025710007
0.24016489
-0.02651952
0.23943411
-0.027329656
0.23880296
-0.028152437
0.2382688
-0.029000531
0.23782893
-0.029887168
0.23748071
-0.030825954
0.23722179
-0.031830444
0.23705026
-0.032913296
0.23696495
-0.034084786
0.23696549
-0.035350666
0.23705228
-0.036709349
0.23722607
-0.038149741
0.23748765
-0.039648169
0.23783672
-0.041173915
0.23827316
-0.04267608
0.23879171
-0.04414226
0.23939756
-0.045439932
0.24005845
-0.046854436
0.24084167
-0.047468098
0.2415
-0.050215703
-0.047193335
0.31607429
0.014640991
-0.31674241