/*--------------------------------*- C++ -*----------------------------------*\
  =========                 |
  \\      /  F ield         | OpenFOAM: The Open Source CFD Toolbox
   \\    /   O peration     | Website:  https://openfoam.org
    \\  /    A nd           | Version:  6
     \\/     M anipulation  |
\*---------------------------------------------------------------------------*/
FoamFile
{
    version     2.0;
    format      ascii;
    class       volScalarField;
    location    "36";
    object      pPrime2Mean;
}
// * * * * * * * * * * * * * * * * * * * * * * * * * * * * * * * * * * * * * //

dimensions      [0 4 -4 0 0 0 0];

internalField   nonuniform List<scalar> 
9200
(
0.30705632
0.25405467
0.20921013
0.18007525
0.15687402
0.13736338
0.12056211
0.10597235
0.093263125
0.082168314
0.072466565
0.06397147
0.056524852
0.049991778
0.044256832
0.039221464
0.03480254
0.030931369
0.027561742
0.024639629
0.2476582
0.20436938
0.16819969
0.14449352
0.12553681
0.10956429
0.095803497
0.083862235
0.073476007
0.064430119
0.056544063
0.049664157
0.043658593
0.038413786
0.033831675
0.029827773
0.026329958
0.023277001
0.020615583
0.018270237
0.19198697
0.15802934
0.12999935
0.11140327
0.096436491
0.08378455
0.072874111
0.063414021
0.055204052
0.048078478
0.041894897
0.036529463
0.031873879
0.027833294
0.024324787
0.021276248
0.018625518
0.016318949
0.014304484
0.01251253
0.14159877
0.11629591
0.095626497
0.081677392
0.070337816
0.060702148
0.052380532
0.045175156
0.038945173
0.033569008
0.028937757
0.024953272
0.021527375
0.018581463
0.016046239
0.013861357
0.011974879
0.010342005
0.0089189548
0.0076532333
0.097898162
0.080304824
0.066018812
0.056128369
0.047958966
0.040959658
0.034902771
0.02967295
0.025181149
0.021343053
0.018077266
0.015306562
0.01295945
0.010971432
0.0092857619
0.0078535988
0.0066336179
0.0055909449
0.0046929841
0.0039051808
0.062123349
0.051046809
0.042008997
0.035483463
0.029946767
0.025139329
0.020969059
0.01738888
0.014351456
0.011801255
0.0096777196
0.0079197424
0.0064693935
0.0052744399
0.0042896575
0.0034771037
0.0028056451
0.0022499626
0.0017880828
0.0013995778
0.035308375
0.029342415
0.024304721
0.020367009
0.016860436
0.013747249
0.011039675
0.0087418914
0.0068363724
0.0052872248
0.0040481455
0.0030697749
0.0023049899
0.0017120311
0.0012558287
0.00090804692
0.00064637566
0.00045353033
0.00031595418
0.00022280101
0.018255039
0.015823782
0.013473371
0.011285958
0.0091571465
0.0071984138
0.0054915047
0.0040729685
0.0029424863
0.0020748765
0.0014321081
0.00097270236
0.00065773117
0.000453852
0.00033421815
0.0002781131
0.00026998906
0.00029846468
0.00035567758
0.00043639098
0.011510079
0.010917626
0.009920453
0.008607097
0.0071713896
0.0057994831
0.0046043573
0.0036347837
0.0028952711
0.0023634807
0.002004749
0.001782237
0.0016626502
0.0016186327
0.001629063
0.0016782934
0.0017550326
0.0018513731
0.0019623493
0.0020850516
0.015338694
0.014827828
0.013860867
0.012528671
0.011087987
0.0097220125
0.0085343953
0.00756629
0.0068160592
0.0062579006
0.0058566029
0.0055770102
0.0053886621
0.0052672446
0.0051943365
0.0051564048
0.00514367
0.0051491736
0.0051681668
0.0051972839
0.73926717
0.62151275
0.51347564
0.44520061
0.39102443
0.34558372
0.30648464
0.27243537
0.2426365
0.21645951
0.19339073
0.17300492
0.15494592
0.13891275
0.12464924
0.11193616
0.10058504
0.090427358
0.081305184
0.073127521
0.7297438
0.61289835
0.50610858
0.43862407
0.38513207
0.34027549
0.30168172
0.26808043
0.23868158
0.21286285
0.19011554
0.17001857
0.15221939
0.13642014
0.12236742
0.10984449
0.098665312
0.088663816
0.079681252
0.071629727
0.71032525
0.59584412
0.49174734
0.4259537
0.37386205
0.33018926
0.292614
0.25990616
0.2312968
0.20617881
0.18405558
0.16451585
0.14721529
0.13186301
0.1182116
0.10604962
0.095196042
0.085489569
0.07677213
0.06895775
0.68135474
0.57076601
0.47080748
0.40758326
0.35757129
0.31564874
0.27957838
0.24818688
0.22073684
0.19664487
0.1754332
0.15670588
0.14013121
0.12542891
0.11236061
0.10072263
0.090340949
0.081061174
0.072728291
0.06525628
0.64362684
0.53837737
0.44389635
0.38405621
0.33674788
0.29709474
0.262976
0.23328973
0.20733936
0.18457273
0.16453713
0.14685693
0.13121713
0.11735144
0.10503321
0.094068674
0.084292348
0.07555834
0.067718448
0.060685632
0.59822028
0.49962229
0.4118011
0.35606637
0.31201052
0.27508226
0.24330721
0.2156675
0.1915154
0.17033657
0.15170878
0.13528113
0.12075899
0.107893
0.096470687
0.086310061
0.077255307
0.069169874
0.061916504
0.055408846
0.54644309
0.45563187
0.37545259
0.32442642
0.28407992
0.25025482
0.22114874
0.19583826
0.17373125
0.15435679
0.13732765
0.12232147
0.1090672
0.097335117
0.086929138
0.077680806
0.069445027
0.062094739
0.055506686
0.049599097
0.48978447
0.40768374
0.33589513
0.2900425
0.25375608
0.22332368
0.19713513
0.17436905
0.15449434
0.13708788
0.12180115
0.10834351
0.096470226
0.085973593
0.076676044
0.068424538
0.061086233
0.054544123
0.048691102
0.043453568
0.4298614
0.35715559
0.29425052
0.25388351
0.22189184
0.19504545
0.17193955
0.15185948
0.13433914
0.11900647
0.1055545
0.093726721
0.083306861
0.074111178
0.065982466
0.058785045
0.052400598
0.046724528
0.041669379
0.037169529
0.36836025
0.30548749
0.25167976
0.21694135
0.18935458
0.16618623
0.14624138
0.12891335
0.11380318
0.10059189
0.089015595
0.078853256
0.069918163
0.062051597
0.055117919
0.04900065
0.043599626
0.038829837
0.034631371
0.030938596
0.064487338
0.055856347
0.048519834
0.042134719
0.036665587
0.031968337
0.027918562
0.024409656
0.021354907
0.018683918
0.016339658
0.014276286
0.012456773
0.010850729
0.0094328079
0.008181529
0.0070784131
0.0061073387
0.0052540831
0.0045059893
0.0038517188
0.0032810657
0.0027848141
0.0023546268
0.0019829573
0.0016629777
0.0013885184
0.0011540157
0.00095446547
0.0007853797
0.0006427472
0.00052299533
0.00042295424
0.00033982161
0.00027112991
0.00021471369
0.00016867996
0.00013137831
0.00010137507
7.7426656e-05
5.8459689e-05
4.3546391e-05
3.189685e-05
2.2834638e-05
1.57888e-05
1.0384624e-05
5.9990614e-06
3.3742546e-06
1.7305591e-06
5.6176143e-06
0.063235314
0.054897138
0.047775086
0.041555162
0.036221245
0.031632633
0.027666553
0.024220647
0.02121281
0.01857639
0.016257504
0.014212899
0.012407459
0.010812132
0.0094024873
0.0081576758
0.0070596552
0.0060926131
0.0052425533
0.0044969901
0.0038447182
0.0032756374
0.0027806172
0.0023513895
0.0019804636
0.0016610569
0.0013870368
0.0011528689
0.0009535725
0.00078467847
0.00064219026
0.00052254675
0.00042258702
0.00033951566
0.0002708704
0.00021448989
0.00016848418
0.00013120525
0.00010122123
7.728987e-05
5.8338797e-05
4.3440918e-05
3.1806863e-05
2.2760186e-05
1.5730809e-05
1.0341411e-05
5.9756779e-06
3.3552878e-06
1.7183165e-06
5.5111625e-06
0.061024077
0.053214905
0.046482162
0.040565923
0.035475829
0.031079808
0.027259589
0.023921291
0.020991946
0.018412295
0.016134382
0.014119607
0.012336219
0.010757453
0.0093604187
0.0081253166
0.0070348244
0.006073637
0.0052281282
0.0044860913
0.0038365372
0.0032695362
0.0027760941
0.0023480527
0.0019780089
0.0016592506
0.0013857009
0.0011518698
0.00095281119
0.00078408235
0.00064170724
0.00052214013
0.00042223155
0.00033919453
0.00027057295
0.00021420983
0.00016821837
0.00013095275
0.00010098263
7.7066843e-05
5.8133656e-05
4.3256269e-05
3.1645546e-05
2.2624313e-05
1.5623685e-05
1.0260854e-05
5.9321506e-06
3.3195386e-06
1.6938142e-06
5.3035571e-06
0.05798041
0.050904674
0.044725038
0.039247055
0.034499456
0.030366209
0.026740667
0.023543031
0.020714496
0.018207074
0.015981179
0.014004329
0.012249037
0.010691392
0.0093104129
0.008087604
0.0070065559
0.0060526202
0.0052126582
0.0044748359
0.0038284551
0.0032638159
0.0027721074
0.0023453174
0.0019761593
0.001658013
0.0013848735
0.0011513067
0.00095240921
0.00078377071
0.00064143909
0.00052188612
0.00042197477
0.00033892677
0.00027029181
0.00021391679
0.00016791731
0.000130649
0.00010068232
7.6776476e-05
5.7859773e-05
4.3005094e-05
3.1423062e-05
2.2434996e-05
1.5473369e-05
1.0147205e-05
5.8706873e-06
3.268778e-06
1.6572757e-06
5.0054767e-06
0.054236206
0.048067885
0.042593918
0.037683117
0.033364542
0.029547215
0.026149241
0.023112846
0.020398438
0.017972744
0.015806279
0.013873299
0.012150844
0.010618043
0.0092559699
0.0080475722
0.0069774866
0.0060318453
0.0051981051
0.0044648956
0.0038218835
0.003259658
0.0027696371
0.0023439902
0.0019755735
0.0016578779
0.0013849841
0.0011515231
0.00095264002
0.0007839602
0.00064155697
0.00052191975
0.00042192326
0.00033879669
0.00027009405
0.00021366448
0.00016762438
0.00013032936
0.00010034936
7.6442777e-05
5.7536983e-05
4.270367e-05
3.1152566e-05
2.2202605e-05
1.528761e-05
1.0006049e-05
5.7941431e-06
3.2054486e-06
1.6095024e-06
4.6324717e-06
0.04991288
0.044802328
0.040174785
0.035946776
0.032126328
0.028658988
0.025506243
0.022642347
0.020050508
0.017713739
0.015613174
0.013729697
0.012044708
0.010540364
0.0091998988
0.0080078345
0.0069499997
0.0060134465
0.0051863503
0.0044579057
0.003818226
0.0032582536
0.002769684
0.0023449038
0.0019769381
0.001659407
0.0013864887
0.0011528867
0.00095379826
0.00078488581
0.0006422476
0.00052238908
0.0004221944
0.00033889754
0.00027005407
0.00021351266
0.00016738798
0.00013003339
0.00010001631
7.6092714e-05
5.7187629e-05
4.2370412e-05
3.0848997e-05
2.1938977e-05
1.5075276e-05
9.8437909e-06
5.705751e-06
3.1323458e-06
1.5516812e-06
4.2033816e-06
0.04513311
0.041209367
0.037547511
0.034085146
0.030804519
0.027704176
0.024806462
0.022125382
0.019667082
0.017429466
0.01540357
0.013576669
0.011934518
0.010462489
0.0091462486
0.0079721702
0.0069275124
0.0060004443
0.0051800175
0.004456114
0.0038193864
0.0032611984
0.0027735733
0.0023491498
0.0019811452
0.001663324
0.0013899706
0.0011558644
0.00095625588
0.00078684226
0.00064374357
0.00052347716
0.00042293208
0.00033934249
0.0002702611
0.00021353201
0.00016726449
0.00012980641
9.9719928e-05
7.5756256e-05
5.6836219e-05
4.2025281e-05
3.0528412e-05
2.165674e-05
1.4845779e-05
9.667202e-06
5.6089009e-06
3.0523814e-06
1.4853779e-06
3.7385309e-06
0.040046423
0.037405668
0.034774662
0.03209438
0.029360566
0.026641438
0.024018822
0.021543121
0.019239815
0.017119003
0.015180928
0.013419833
0.01182668
0.010390813
0.0091009681
0.0079458797
0.0069146146
0.0059967339
0.0051823623
0.0044622088
0.003827562
0.0032702732
0.0027827367
0.0023578708
0.0019891007
0.0016703422
0.0013959876
0.0011608901
0.00096034798
0.00079008715
0.00064624205
0.00052533445
0.00042425098
0.00034021912
0.00027078238
0.00021377466
0.00016729486
0.00012968111
9.9486735e-05
7.5455257e-05
5.6500914e-05
4.1683383e-05
3.0203212e-05
2.1365848e-05
1.4606615e-05
9.4817446e-06
5.5061796e-06
2.9679279e-06
1.4124704e-06
3.258125e-06
0.034794715
0.033450702
0.031801305
0.029834814
0.027641578
0.025346268
0.023053147
0.020831623
0.018722782
0.016748831
0.014920284
0.01324013
0.011706304
0.0103135
0.0090545314
0.0079212266
0.0069049907
0.0059971488
0.0051891588
0.0044727388
0.0038399411
0.0032831933
0.0027953228
0.0023695701
0.0019995968
0.0016794889
0.0014037575
0.0011673353
0.00096557045
0.00079421687
0.00064942078
0.00052770469
0.00042594854
0.00034136862
0.00027149479
0.00021414654
0.00016740859
0.00012960599
9.9280348e-05
7.5165105e-05
5.6166039e-05
4.1335573e-05
2.9868767e-05
2.1064602e-05
1.4357632e-05
9.2881803e-06
5.3976448e-06
2.880327e-06
1.3353887e-06
2.7827862e-06
0.02954918
0.029228385
0.028362931
0.027055704
0.025453297
0.023671053
0.02179515
0.019900012
0.018042097
0.016258552
0.014572562
0.012997955
0.011541585
0.010205117
0.0089866826
0.0078821436
0.0068859459
0.0059917002
0.0051925818
0.0044816021
0.0038517877
0.0032963003
0.0028085185
0.0023820938
0.0020109911
0.0016895159
0.0014123345
0.0011744854
0.00097138483
0.00079882649
0.00065297604
0.00053036086
0.0004278559
0.00034266627
0.00027230719
0.0002145821
0.00016755966
0.00012954987
9.9080792e-05
7.4874198e-05
5.5826107e-05
4.0980647e-05
2.9526691e-05
2.0756229e-05
1.4102597e-05
9.0902944e-06
5.2854398e-06
2.792797e-06
1.2573691e-06
2.335169e-06
0.023810472
0.024142077
0.023927321
0.023244148
0.022257425
0.021049712
0.019677563
0.01820711
0.016699773
0.015201251
0.01374399
0.012351136
0.011038208
0.0098143915
0.0086840953
0.0076483164
0.0067056364
0.0058529579
0.0050860577
0.0043999944
0.0037894024
0.0032487048
0.002772269
0.0023545212
0.0019900327
0.0016735833
0.0014002089
0.0011652353
0.00096430167
0.00079337338
0.00064874793
0.00052705335
0.00042524106
0.00034057397
0.0002706108
0.0002131877
0.00016639788
0.00012856988
9.8245777e-05
7.4158108e-05
5.5211162e-05
4.0455398e-05
2.9084608e-05
2.0393517e-05
1.3820087e-05
8.8805793e-06
5.1663855e-06
2.7038826e-06
1.1774478e-06
1.9405205e-06
0.018437109
0.019068687
0.019234998
0.018986843
0.018465427
0.017728944
0.016808409
0.015754593
0.014622025
0.013453926
0.012283273
0.011135952
0.010031429
0.0089832466
0.0080001363
0.0070871516
0.0062465401
0.0054784317
0.0047813972
0.0041528884
0.0035895753
0.0030876034
0.0026427928
0.0022507921
0.0019071983
0.0016076503
0.0013479018
0.0011238762
0.00093170866
0.00076777518
0.00062871155
0.00051142359
0.0004130899
0.00033115852
0.00026333845
0.00020758748
0.00016209693
0.00012527438
9.5725416e-05
7.2233707e-05
5.3744469e-05
3.9341333e-05
2.8244062e-05
1.9768604e-05
1.3369923e-05
8.5693363e-06
4.9897295e-06
2.5840883e-06
1.0842243e-06
1.5562877e-06
0.013831735
0.014633956
0.015064665
0.015154945
0.014998804
0.014638905
0.014092881
0.013396753
0.012595228
0.011726622
0.01082197
0.0099073342
0.0090039269
0.0081279384
0.0072911355
0.006501682
0.0057648226
0.0050834582
0.0044586521
0.0038900568
0.0033762612
0.0029150686
0.0025037216
0.0021390829
0.0018177815
0.0015363292
0.0012912159
0.001078983
0.00089628252
0.00073992069
0.00060689001
0.00049439072
0.00039984335
0.00032089387
0.0002554126
0.00020148826
0.00015741815
0.00012169539
9.2994446e-05
7.0154501e-05
5.2165273e-05
3.8146585e-05
2.7346377e-05
1.9104218e-05
1.2892675e-05
8.2413103e-06
4.8012941e-06
2.4603908e-06
9.8860473e-07
1.188396e-06
0.0099618109
0.010836082
0.011425831
0.011752255
0.011864162
0.011790532
0.011542549
0.011143625
0.010626877
0.010023728
0.0093613842
0.0086639844
0.0079524419
0.0072438841
0.0065517536
0.0058862719
0.0052548956
0.0046627329
0.004112948
0.0036071325
0.0031456267
0.0027277922
0.0023522411
0.0020170294
0.0017198175
0.0014580035
0.0012288333
0.0010294907
0.00085716952
0.00070913111
0.00058274801
0.00047553613
0.00038517691
0.00030953086
0.00024664389
0.00019474786
0.00015225623
0.00011775616
8.9998009e-05
6.7882248e-05
5.0447778e-05
3.6854474e-05
2.6381462e-05
1.8394751e-05
1.2385678e-05
7.8957496e-06
4.6002349e-06
2.3350249e-06
8.9767592e-07
8.6389875e-07
0.0068484029
0.0076987419
0.0083500377
0.0088127483
0.0091006764
0.009228754
0.0092034932
0.0090384946
0.0087555938
0.0083782373
0.0079285212
0.0074271518
0.0068930892
0.0063428425
0.0057901997
0.0052463435
0.0047200669
0.0042180129
0.0037449467
0.0033040372
0.002897123
0.0025249526
0.0021873982
0.0018836439
0.0016123477
0.0013717819
0.0011599513
0.00097469343
0.00081376122
0.00067489067
0.00055585463
0.00045450456
0.00036880132
0.0002968368
0.00023684746
0.00018722127
0.00014649901
0.0001133713
8.6672261e-05
6.5370197e-05
4.8558591e-05
3.5441843e-05
2.5333847e-05
1.7630291e-05
1.1842927e-05
7.5292766e-06
4.384422e-06
2.2076402e-06
8.1465449e-07
5.9695406e-07
0.0044604578
0.005213497
0.0058456443
0.0063567847
0.0067381145
0.0069916948
0.0071188282
0.0071254405
0.0070237132
0.006829081
0.0065578268
0.0062263114
0.0058504024
0.0054447566
0.0050223427
0.0045942772
0.0041698171
0.0037564274
0.0033599106
0.0029845801
0.0026334484
0.0023084145
0.0020104434
0.0017397329
0.0014958651
0.0012779416
0.001084703
0.00091463227
0.00076604311
0.0006371543
0.00052615098
0.00043123382
0.00035065744
0.00028275902
0.00022597859
0.00017887199
0.00014011777
0.00010851902
8.3001353e-05
6.2607403e-05
4.6490683e-05
3.3904629e-05
2.4201634e-05
1.6810287e-05
1.1264682e-05
7.1422886e-06
4.1540661e-06
2.0782789e-06
7.4066477e-07
3.9386816e-07
0.0027222845
0.0033348676
0.003890392
0.004381023
0.0047866693
0.0050999425
0.0053167948
0.0054370031
0.0054650902
0.0054093096
0.0052800814
0.00508902
0.0048482588
0.0045697631
0.0042647715
0.0039434558
0.0036147388
0.0032862123
0.002964135
0.0026534924
0.0023580981
0.0020807141
0.0018231816
0.0015865538
0.0013712239
0.001177046
0.0010034464
0.00084952353
0.00071413653
0.00059598195
0.00049365905
0.00040572406
0.00033073414
0.00026728184
0.00021402103
0.00016968543
0.00013310057
0.00010319033
7.8979117e-05
5.959016e-05
4.424235e-05
3.224263e-05
2.2985659e-05
1.5936086e-05
1.0652512e-05
6.7359505e-06
3.910132e-06
1.9468658e-06
6.7511099e-07
2.5376846e-07
0.0015366611
0.0019918678
0.0024370336
0.0028601749
0.0032380713
0.0035580687
0.003811885
0.0039946572
0.0041052435
0.0041460483
0.0041221913
0.0040406635
0.0039096774
0.00373807
0.0035347532
0.0033082922
0.0030666152
0.0028168219
0.002565074
0.0023165548
0.0020754833
0.0018451638
0.0016280602
0.0014258845
0.001239693
0.0010699834
0.00091679024
0.00077977452
0.00065830658
0.00055154051
0.00045847967
0.00037803296
0.00030906198
0.00025041953
0.00020097997
0.00015966221
0.00012544621
9.738375e-05
7.4604567e-05
5.631828e-05
4.1814223e-05
3.0457142e-05
2.1687682e-05
1.5009554e-05
1.0008291e-05
6.3114935e-06
3.6538715e-06
1.8130114e-06
6.1591071e-07
1.6908407e-07
0.00080041402
0.0011004733
0.0014218136
0.0017512262
0.0020670785
0.0023550562
0.0026045646
0.0028078067
0.0029598683
0.003058858
0.0031055748
0.0031029454
0.0030554977
0.0029688838
0.0028494165
0.0027036503
0.0025380461
0.0023587191
0.0021712571
0.0019806036
0.0017909973
0.001605955
0.0014282892
0.0012601488
0.0011030768
0.0009580784
0.00082569329
0.00070606941
0.00059903459
0.00050416391
0.00042084142
0.00034831505
0.00028574434
0.00023224078
0.00018690094
0.00014883269
0.00011717526
9.1113636e-05
6.9888112e-05
5.2799665e-05
3.9212584e-05
2.8553323e-05
2.0312027e-05
1.4034226e-05
9.3349478e-06
5.8707975e-06
3.3871222e-06
1.6764747e-06
5.6039078e-07
1.2756829e-07
0.00041497712
0.00057456326
0.00077372495
0.00099997859
0.0012354267
0.0014665624
0.0016824209
0.0018739759
0.0020342576
0.0021586339
0.0022447846
0.0022924184
0.0023029326
0.0022790728
0.002224587
0.0021438765
0.0020416758
0.0019227849
0.0017918555
0.0016532273
0.0015108145
0.0013680346
0.0012277754
0.00109239
0.00096371554
0.00084310817
0.0007314891
0.00062939756
0.00053704674
0.00045437991
0.00038112445
0.00031684214
0.00026097448
0.00021288257
0.00017188097
0.00013726577
0.00010833693
8.4415393e-05
6.4855514e-05
4.9053283e-05
3.645156e-05
2.6541791e-05
1.8866714e-05
1.3016072e-05
8.6369435e-06
5.4167085e-06
3.1123606e-06
1.537377e-06
5.0612331e-07
1.1510521e-07
0.00029312448
0.00033357608
0.00042198043
0.00054763781
0.00069697201
0.00085861994
0.0010226859
0.0011803274
0.0013239519
0.0014475792
0.0015469908
0.001619662
0.0016646032
0.001682169
0.0016738353
0.0016419491
0.0015894706
0.0015197317
0.0014362246
0.0013424241
0.0012416455
0.0011369387
0.001031016
0.00092621005
0.000824456
0.00072729498
0.00063589238
0.00055106768
0.0004733318
0.00040292866
0.00033987828
0.00028401932
0.00023504931
0.00019256155
0.00015607776
0.00012507612
9.9014634e-05
7.7349819e-05
5.9551165e-05
4.511161e-05
3.3554935e-05
2.4439941e-05
1.7364406e-05
1.1964181e-05
7.9207419e-06
4.9534156e-06
2.8328615e-06
1.3965214e-06
4.5169543e-07
1.1850486e-07
0.00036179684
0.0003066574
0.00030093151
0.00033606817
0.00040256165
0.00049166698
0.00059534841
0.00070589669
0.00081615363
0.00091990372
0.0010121104
0.0010889821
0.001147956
0.0011876378
0.0012076969
0.0012087187
0.0011920292
0.0011595095
0.0011134166
0.0010562179
0.0009904469
0.00091858247
0.00084295494
0.00076567687
0.00068859798
0.00061328053
0.00054099229
0.00047271334
0.00040915376
0.00035077879
0.00029783868
0.00025040113
0.00020838395
0.00017158674
0.00013972026
0.00011243277
8.9332803e-05
7.0008306e-05
5.4042048e-05
4.1023598e-05
3.0558327e-05
2.2273524e-05
1.5823519e-05
1.0891515e-05
7.1952862e-06
4.4867327e-06
2.5527412e-06
1.2554581e-06
3.9692387e-07
1.2747312e-07
0.0005622078
0.00043424606
0.00035280341
0.00031139032
0.00030393088
0.0003242249
0.00036633641
0.00042416516
0.00049163824
0.00056308213
0.00063348008
0.00069860328
0.00075508212
0.00080044097
0.00083308911
0.00085226473
0.00085794192
0.00085071344
0.00083166123
0.00080222454
0.00076407331
0.00071899308
0.00066878521
0.00061518564
0.00055980202
0.00050406937
0.00044922214
0.00039628106
0.00034605208
0.00029913503
0.00025593936
0.00021670482
0.00018152494
0.00015037158
0.00012311926
9.9567995e-05
7.9464175e-05
6.2518677e-05
4.8422268e-05
3.6858127e-05
2.7511779e-05
2.0078545e-05
1.4269603e-05
9.8158764e-06
6.4726635e-06
4.0245331e-06
2.2771777e-06
1.1166234e-06
3.4277487e-07
1.3547512e-07
0.0008485189
0.00066803471
0.00052879626
0.00042606065
0.0003564143
0.00031584006
0.00030037407
0.00030562183
0.00032688474
0.00035947768
0.00039896383
0.00044129902
0.00048294101
0.00052093761
0.00055298147
0.0005774238
0.00059325093
0.00060003175
0.00059784386
0.00058718547
0.00056888075
0.00054398484
0.00051369414
0.00047926583
0.00044194954
0.00040293216
0.00036329652
0.00032399291
0.00028582265
0.00024943189
0.00021531371
0.0001838169
0.00015515923
0.00012944381
0.00010667689
8.6785971e-05
6.9637164e-05
5.5051263e-05
4.2817919e-05
3.2707787e-05
2.4482623e-05
1.790338e-05
1.2736856e-05
8.7609529e-06
5.7687874e-06
3.5771227e-06
2.0125672e-06
9.8331016e-07
2.9093541e-07
1.3948676e-07
0.0011858907
0.00096998059
0.00078905624
0.00063974067
0.00052054059
0.0004291532
0.00036326603
0.00032004025
0.00029616853
0.00028812361
0.00029234768
0.00030537769
0.00032395586
0.00034513528
0.000366366
0.00038555144
0.00040107435
0.00041179591
0.00041703163
0.00041650811
0.00041030574
0.00039879286
0.00038255651
0.00036233427
0.00033895084
0.00031326207
0.00028610792
0.00025827551
0.00023047187
0.00020330626
0.00017728079
0.0001527881
0.00013011486
0.00010944939
9.0892317e-05
7.4468859e-05
6.0141785e-05
4.7824205e-05
3.7391577e-05
2.8692537e-05
2.1558353e-05
1.5810965e-05
1.1269739e-05
7.7574623e-06
5.1041881e-06
3.1577147e-06
1.7668175e-06
8.5972088e-07
2.4345542e-07
1.3908616e-07
0.0015484281
0.0013108771
0.0011019593
0.00091930999
0.00076271984
0.00063113669
0.00052351456
0.00043829479
0.00037340794
0.00032645561
0.00029484835
0.00027589733
0.00026690463
0.00026526092
0.00026853684
0.00027455669
0.00028145183
0.00028769368
0.00029210697
0.00029386424
0.00029246401
0.00028769613
0.00027959818
0.00026840671
0.00025450702
0.00023838447
0.00022057981
0.00020165026
0.00018213749
0.00016254274
0.00014330927
0.00012481126
0.00010734871
9.1147009e-05
7.6360402e-05
6.3078117e-05
5.1332248e-05
4.1106534e-05
3.2345359e-05
2.4962448e-05
1.8848934e-05
1.3880626e-05
9.9243728e-06
6.84415e-06
4.5046863e-06
2.7828065e-06
1.549571e-06
7.5095166e-07
2.0247506e-07
1.3532786e-07
0.0019173019
0.0016688245
0.0014430509
0.0012383416
0.0010552711
0.00089363722
0.00075329125
0.00063364336
0.00053362682
0.00045182438
0.00038655978
0.00033595387
0.00029798631
0.00027057191
0.00025163998
0.00023920652
0.00023143572
0.00022668922
0.00022356177
0.00022090201
0.00021781873
0.00021367375
0.00020806366
0.00020079305
0.00019184192
0.00018132994
0.00016948032
0.00015658519
0.00014297423
0.00012898782
0.00011495511
0.00010117745
8.7916796e-05
7.5388847e-05
6.3760058e-05
5.3147943e-05
4.3623794e-05
3.5217108e-05
2.7921053e-05
2.1698431e-05
1.6487732e-05
1.220901e-05
8.7693367e-06
6.06842e-06
4.0018577e-06
2.4724666e-06
1.3724216e-06
6.6302781e-07
1.7019755e-07
1.2981038e-07
0.0022791494
0.0020277877
0.0017938785
0.0015762929
0.0013760235
0.0011934016
0.0010288626
0.0008824939
0.00075397861
0.00064268027
0.00054769836
0.00046789421
0.00040192488
0.00034829412
0.00030541164
0.00027165227
0.00024541212
0.00022515977
0.00020948043
0.00019711069
0.0001869627
0.00017813734
0.0001699269
0.0001618085
0.00015342974
0.00014458845
0.00013520877
0.00012531524
0.00011500697
0.00010443314
9.3771084e-05
8.3207581e-05
7.2923885e-05
6.3084397e-05
5.3828925e-05
4.5268082e-05
3.7481373e-05
3.0517409e-05
2.4395716e-05
1.910967e-05
1.4630107e-05
1.0909359e-05
7.8853364e-06
5.4861987e-06
3.6329873e-06
2.250307e-06
1.2489369e-06
6.0286649e-07
1.4894343e-07
1.2407882e-07
0.0026247704
0.0023763346
0.0021408661
0.0019175959
0.0017076836
0.0015117612
0.0013306045
0.0011647338
0.0010143504
0.00087939229
0.00075956456
0.00065434355
0.00056298841
0.00048456887
0.00041800319
0.00036209975
0.00031560044
0.00027722447
0.00024571049
0.00021985462
0.00019854255
0.00018077434
0.00016568129
0.00015253481
0.00014074776
0.00012986908
0.00011957293
0.00010964391
9.995964e-05
9.0472219e-05
8.1189804e-05
7.2159303e-05
6.345093e-05
5.514512e-05
4.732201e-05
4.0053521e-05
3.3397857e-05
2.7396166e-05
2.2071021e-05
1.7426359e-05
1.3448549e-05
1.010831e-05
7.3631276e-06
5.1606145e-06
3.4402543e-06
2.1430016e-06
1.1944308e-06
5.7816116e-07
1.4123742e-07
1.1936411e-07
0.0029480907
0.0027065801
0.0024743074
0.002250762
0.0020371099
0.0018341231
0.0016427407
0.0014637276
0.0012976114
0.0011447199
0.0010051951
0.00087898401
0.00076583483
0.00066530705
0.00057679083
0.00049953128
0.00043265708
0.00037521215
0.00032618965
0.00028456561
0.00024933096
0.00021951993
0.00019423394
0.00017265986
0.00015408245
0.00013789078
0.00012357922
0.00011074347
9.9072814e-05
8.8339382e-05
7.8385753e-05
6.9111699e-05
6.0461049e-05
5.2409365e-05
4.495292e-05
3.8099325e-05
3.185993e-05
2.6244028e-05
2.1254735e-05
1.6886385e-05
1.3123239e-05
9.9393145e-06
7.2990154e-06
5.1589922e-06
3.4687881e-06
2.1790988e-06
1.2253105e-06
5.9707391e-07
1.4978413e-07
1.165387e-07
0.0032453502
0.003013325
0.0027875012
0.0025675618
0.0023545838
0.0021493752
0.0019529186
0.0017660878
0.0015895904
0.0014239931
0.001269727
0.0011270712
0.0009961409
0.00087688488
0.00076909127
0.00067239782
0.00058630671
0.00051020365
0.00044338105
0.0003850633
0.00033443339
0.000290659
0.00025291717
0.00022041605
0.00019241323
0.00016822972
0.00014725956
0.00012897497
0.0001129273
9.8744576e-05
8.6126033e-05
7.4834599e-05
6.4688048e-05
5.5549545e-05
4.7318205e-05
3.9920188e-05
3.3300687e-05
2.741703e-05
2.2233049e-05
1.7714705e-05
1.3826955e-05
1.0531793e-05
7.7872285e-06
5.5476364e-06
3.7632325e-06
2.3868892e-06
1.3578681e-06
6.6766166e-07
1.77306e-07
1.1617497e-07
0.0035144635
0.0032933586
0.003076026
0.0028623011
0.002653123
0.0024492732
0.002251703
0.002061304
0.0018788591
0.0017050603
0.0015405088
0.0013856979
0.0012409959
0.0011066373
0.00098271992
0.0008692048
0.0007659203
0.00067257036
0.00058874702
0.00051394637
0.00044758716
0.00038903106
0.00033760377
0.00029261563
0.00025338103
0.00021923559
0.00018955063
0.00016374427
0.00014128929
0.00012171751
0.00010462104
8.9650958e-05
7.6513639e-05
6.4965596e-05
5.4807179e-05
4.5875813e-05
3.803914e-05
3.1188515e-05
2.5233081e-05
2.0094652e-05
1.5703532e-05
1.1995312e-05
8.9085719e-06
6.3839378e-06
4.3624686e-06
2.7910848e-06
1.6063619e-06
7.9694503e-07
2.2620844e-07
1.1861538e-07
0.003754521
0.0035449025
0.0033371428
0.0031312052
0.0029278713
0.0027278632
0.0025320585
0.0023413108
0.0021564088
0.0019780898
0.0018070374
0.0016438651
0.0014890993
0.0013431674
0.0012063896
0.0010789733
0.00096100926
0.000852472
0.00075322373
0.00066302148
0.00058152763
0.00050832294
0.00044292183
0.00038478882
0.00033335555
0.00028803748
0.0002482495
0.00021341993
0.00018300229
0.00015648449
0.00013339553
0.00011330947
9.584708e-05
8.0675278e-05
6.7504961e-05
5.6087459e-05
4.6210152e-05
3.7691619e-05
3.0376676e-05
2.4131628e-05
1.883995e-05
1.4398622e-05
1.0715108e-05
7.7055408e-06
5.2922702e-06
3.4081337e-06
1.9802775e-06
9.895567e-07
2.9807721e-07
1.2400924e-07
0.0039653672
0.0037671346
0.0035692751
0.0033718654
0.0031755286
0.0029809137
0.0027888058
0.00259999
0.0024152193
0.0022352241
0.0020607097
0.0018923419
0.0017307319
0.0015764237
0.001429884
0.0012914933
0.0011615383
0.0010402067
0.00092758502
0.00082365868
0.00072831577
0.00064135311
0.00056248507
0.00049135447
0.0004275453
0.00037059628
0.00032001499
0.00027529171
0.0002359124
0.0002013704
0.00017117638
0.00014486636
0.00012200754
0.00010220225
8.5089775e-05
7.0346663e-05
5.7685522e-05
4.6852793e-05
3.7625777e-05
2.9809255e-05
2.3232001e-05
1.7743467e-05
1.3210752e-05
9.5164461e-06
6.5557907e-06
4.2400909e-06
2.4807226e-06
1.2459391e-06
3.9301177e-07
1.3230053e-07
0.0041473075
0.0039598522
0.003771632
0.0035828302
0.0033939204
0.0032054771
0.0030181891
0.0028327607
0.0026498878
0.0024702642
0.0022945785
0.0021235037
0.0019576832
0.0017977203
0.0016441677
0.0014975172
0.0013581909
0.0012265325
0.0011028014
0.00098716881
0.00087971499
0.00078043057
0.00068921914
0.00060590279
0.00053022961
0.00046188307
0.00040049277
0.00034564611
0.00029690033
0.00025379436
0.00021586006
0.00018263242
0.00015365831
0.00012850373
0.00010675936
8.8044337e-05
7.2008594e-05
5.8333657e-05
4.6732349e-05
3.6947555e-05
2.8750364e-05
2.1937892e-05
1.6330932e-05
1.1772128e-05
8.1231547e-06
5.2678142e-06
3.0963692e-06
1.5603082e-06
5.0888021e-07
1.4319181e-07
0.0043007042
0.004123017
0.0039437067
0.00376306
0.0035814151
0.0033992782
0.0032172477
0.0030359476
0.0028560093
0.0026780758
0.0025027989
0.0023308314
0.0021628157
0.0019993748
0.001841103
0.0016885559
0.0015422406
0.0014026071
0.0012700393
0.0011448486
0.0010272681
0.0009174492
0.0008154599
0.00072128547
0.00063483119
0.00055592722
0.00048433539
0.00041975753
0.00036184512
0.00031020969
0.00026443361
0.00022408073
0.00018870667
0.00015786802
0.00013113058
0.0001080762
8.8308111e-05
7.1454917e-05
5.7173143e-05
4.5148575e-05
3.5096579e-05
2.6761637e-05
1.9916319e-05
1.436027e-05
9.9180303e-06
6.4421316e-06
3.7981809e-06
1.9179319e-06
6.4030845e-07
1.5600413e-07
0.0044259677
0.0042567207
0.0040852133
0.0039118386
0.0037368139
0.0035605872
0.0033836785
0.003206639
0.0030300385
0.002854467
0.0026805319
0.002508853
0.0023400531
0.0021747513
0.0020135542
0.0018570473
0.0017057858
0.0015602856
0.0014210138
0.0012883811
0.0011627336
0.0010443471
0.00093342184
0.00083007969
0.000734363
0.00064623553
0.00056558517
0.00049222894
0.00042591948
0.00036635315
0.00031317918
0.00026600967
0.00022442986
0.0001880083
0.00015630662
0.00012888843